TITLE = "FEM Line Output"
VARIABLES = "X", "Y", "Z", "U", "V", "W", "RX", "RY", "RZ", "Stress", "Moment", "Torsion"
ZONE T="Time=0.0199", STRANDID=1, SOLUTIONTIME=1.990494e-02, NODES=9, ELEMENTS=8, ZONETYPE=FELINESEG, DATAPACKING=BLOCK, VARLOCATION=([10,11,12]=CELLCENTERED)
   0.000000e+00    0.000000e+00    0.000000e+00    0.000000e+00    0.000000e+00    1.000000e+00    2.000000e+00    3.000000e+00    3.000000e+00 
   0.000000e+00    1.000000e+00    2.000000e+00    3.000000e+00    4.000000e+00    4.000000e+00    4.000000e+00    4.000000e+00    0.000000e+00 
   0.000000e+00    0.000000e+00    0.000000e+00    0.000000e+00    0.000000e+00    0.000000e+00    0.000000e+00    0.000000e+00    2.000000e+00 
   0.000000e+00   -2.982993e-06   -6.074791e-06   -2.729412e-06    2.909589e-06    2.925826e-06    2.935609e-06    2.938944e-06    0.000000e+00 
   0.000000e+00   -9.472507e-08   -1.893887e-07   -2.839297e-07   -3.782873e-07    2.470467e-05    1.603820e-04    4.211710e-04    0.000000e+00 
   0.000000e+00    1.348354e-05    7.241620e-06   -6.924709e-05   -2.154285e-04    5.480772e-05    4.930831e-04    1.133520e-03    0.000000e+00 
   0.000000e+00    1.472400e-05   -3.617862e-05   -1.171492e-04   -1.625416e-04   -1.624695e-04   -1.624261e-04   -1.624116e-04    0.000000e+00 
   0.000000e+00   -5.699304e-05   -1.140859e-04   -1.713783e-04   -2.289699e-04   -3.348882e-04   -5.504747e-04   -6.934951e-04    0.000000e+00 
   0.000000e+00    4.486152e-06    4.407921e-07   -6.562695e-06   -1.308286e-06    6.853472e-05    2.065871e-04    2.920918e-04    0.000000e+00 
   6.227220e+05    8.752179e+05    9.262082e+05    1.007690e+06    2.974186e+06    3.915647e+06    4.079923e+06   -5.823556e+06 
   8.703266e+01    1.303388e+02    1.369822e+02    1.392546e+02    3.560812e+02    4.739762e+02    4.948373e+02    0.000000e+00 
   6.135871e+01    6.146614e+01    6.168097e+01    6.200316e+01    7.764434e-02    4.672447e-02    1.559790e-02    0.000000e+00 
1 2
2 3
3 4
4 5
5 6
6 7
7 8
8 9
ZONE T="Time=0.0399", STRANDID=1, SOLUTIONTIME=3.990494e-02, NODES=9, ELEMENTS=8, ZONETYPE=FELINESEG, DATAPACKING=BLOCK, VARLOCATION=([10,11,12]=CELLCENTERED)
   0.000000e+00    0.000000e+00    0.000000e+00    0.000000e+00    0.000000e+00    1.000000e+00    2.000000e+00    3.000000e+00    3.000000e+00 
   0.000000e+00    1.000000e+00    2.000000e+00    3.000000e+00    4.000000e+00    4.000000e+00    4.000000e+00    4.000000e+00    0.000000e+00 
   0.000000e+00    0.000000e+00    0.000000e+00    0.000000e+00    0.000000e+00    0.000000e+00    0.000000e+00    0.000000e+00    2.000000e+00 
   0.000000e+00    5.851102e-05    1.505610e-04    1.438411e-04   -1.042772e-04   -1.041878e-04   -1.041339e-04   -1.041156e-04    0.000000e+00 
   0.000000e+00    4.616346e-08    9.235013e-08    1.385832e-07    1.848858e-07    5.979755e-04    1.509072e-03    2.615613e-03    0.000000e+00 
   0.000000e+00   -9.437644e-05   -3.381451e-04   -6.741238e-04   -1.050941e-03    8.825498e-04    3.105591e-03    5.535789e-03    0.000000e+00 
   0.000000e+00   -1.788617e-04   -2.990830e-04   -3.642064e-04   -3.827636e-04   -3.828301e-04   -3.828700e-04   -3.828832e-04    0.000000e+00 
   0.000000e+00   -4.463254e-04   -8.926867e-04   -1.339120e-03   -1.785661e-03   -2.082826e-03   -2.350461e-03   -2.473579e-03    0.000000e+00 
   0.000000e+00   -9.640433e-05   -6.571896e-05    1.031739e-04    4.165604e-04    7.684487e-04    1.034737e-03    1.144585e-03    0.000000e+00 
   3.677086e+06    2.465333e+06    3.329840e+06    4.233450e+06    6.870625e+06    6.303963e+06    4.436775e+06   -6.091264e+06 
   4.362940e+02    2.551742e+02    4.068062e+02    6.397781e+02    8.041153e+02    7.419245e+02    5.230247e+02    0.000000e+00 
   4.805139e+02    4.805526e+02    4.806299e+02    4.807458e+02    7.166645e-02    4.290103e-02    1.428386e-02    0.000000e+00 
1 2
2 3
3 4
4 5
5 6
6 7
7 8
8 9
ZONE T="Time=0.0599", STRANDID=1, SOLUTIONTIME=5.990494e-02, NODES=9, ELEMENTS=8, ZONETYPE=FELINESEG, DATAPACKING=BLOCK, VARLOCATION=([10,11,12]=CELLCENTERED)
   0.000000e+00    0.000000e+00    0.000000e+00    0.000000e+00    0.000000e+00    1.000000e+00    2.000000e+00    3.000000e+00    3.000000e+00 
   0.000000e+00    1.000000e+00    2.000000e+00    3.000000e+00    4.000000e+00    4.000000e+00    4.000000e+00    4.000000e+00    0.000000e+00 
   0.000000e+00    0.000000e+00    0.000000e+00    0.000000e+00    0.000000e+00    0.000000e+00    0.000000e+00    0.000000e+00    2.000000e+00 
   0.000000e+00    1.412711e-04    3.173649e-04    1.801886e-04   -5.599095e-04   -5.597866e-04   -5.597125e-04   -5.596872e-04    0.000000e+00 
   0.000000e+00    3.381161e-07    6.762030e-07    1.014232e-06    1.352174e-06    1.464417e-03    3.362967e-03    5.396419e-03    0.000000e+00 
   0.000000e+00   -1.876584e-04   -6.068097e-04   -1.069764e-03   -1.478898e-03    2.389379e-03    6.561447e-03    1.077083e-02    0.000000e+00 
   0.000000e+00   -3.386427e-04   -4.673428e-04   -4.408548e-04   -3.885890e-04   -3.891078e-04   -3.894192e-04   -3.895230e-04    0.000000e+00 
   0.000000e+00   -9.044918e-04   -1.808848e-03   -2.712933e-03   -3.616612e-03   -4.072971e-03   -4.221962e-03   -4.193336e-03    0.000000e+00 
   0.000000e+00   -2.199152e-04   -7.365834e-05    3.966310e-04    1.118957e-03    1.741329e-03    2.003876e-03    2.042880e-03    0.000000e+00 
   8.632062e+06    5.545016e+06    7.025153e+06    9.210354e+06    1.419600e+07    7.163044e+06    1.389668e+06    4.401687e+05 
   1.010457e+03    5.394124e+02    1.035412e+03    1.381134e+03    1.690568e+03    8.545173e+02    1.684918e+02    0.000000e+00 
   9.737759e+02    9.736299e+02    9.733381e+02    9.729003e+02    5.585396e-01    3.352525e-01    1.117723e-01    0.000000e+00 
1 2
2 3
3 4
4 5
5 6
6 7
7 8
8 9
ZONE T="Time=0.0799", STRANDID=1, SOLUTIONTIME=7.990494e-02, NODES=9, ELEMENTS=8, ZONETYPE=FELINESEG, DATAPACKING=BLOCK, VARLOCATION=([10,11,12]=CELLCENTERED)
   0.000000e+00    0.000000e+00    0.000000e+00    0.000000e+00    0.000000e+00    1.000000e+00    2.000000e+00    3.000000e+00    3.000000e+00 
   0.000000e+00    1.000000e+00    2.000000e+00    3.000000e+00    4.000000e+00    4.000000e+00    4.000000e+00    4.000000e+00    0.000000e+00 
   0.000000e+00    0.000000e+00    0.000000e+00    0.000000e+00    0.000000e+00    0.000000e+00    0.000000e+00    0.000000e+00    2.000000e+00 
   0.000000e+00    4.592104e-05   -1.436555e-05   -4.523385e-04   -1.478242e-03   -1.478167e-03   -1.478123e-03   -1.478107e-03    0.000000e+00 
   0.000000e+00    3.632749e-07    7.265135e-07    1.089680e-06    1.452737e-06    1.666045e-03    3.653211e-03    5.681261e-03    0.000000e+00 
   0.000000e+00   -6.138712e-05   -1.179271e-04   -2.409728e-05    2.375536e-04    3.807793e-03    7.536108e-03    1.114732e-02    0.000000e+00 
   0.000000e+00   -8.958332e-05    2.179455e-06    1.897681e-04    3.027648e-04    3.024549e-04    3.022689e-04    3.022070e-04    0.000000e+00 
   0.000000e+00   -8.404521e-04   -1.680710e-03   -2.520578e-03   -3.359864e-03   -3.714752e-03   -3.689699e-03   -3.557342e-03    0.000000e+00 
   0.000000e+00   -4.155727e-05    2.079970e-04    7.032324e-04    1.371137e-03    1.888043e-03    2.036750e-03    2.015936e-03    0.000000e+00 
   3.888256e+06    5.631982e+06    8.087855e+06    9.481396e+06    1.280858e+07    4.797988e+06    2.375562e+06    4.304021e+06 
   4.496803e+02    7.038863e+02    1.056005e+03    1.226426e+03    1.521677e+03    5.418118e+02    3.441116e+02    0.000000e+00 
   9.048307e+02    9.046213e+02    9.042025e+02    9.035746e+02    3.336306e-01    2.001555e-01    6.671468e-02    0.000000e+00 
1 2
2 3
3 4
4 5
5 6
6 7
7 8
8 9
ZONE T="Time=0.0999", STRANDID=1, SOLUTIONTIME=9.990494e-02, NODES=9, ELEMENTS=8, ZONETYPE=FELINESEG, DATAPACKING=BLOCK, VARLOCATION=([10,11,12]=CELLCENTERED)
   0.000000e+00    0.000000e+00    0.000000e+00    0.000000e+00    0.000000e+00    1.000000e+00    2.000000e+00    3.000000e+00    3.000000e+00 
   0.000000e+00    1.000000e+00    2.000000e+00    3.000000e+00    4.000000e+00    4.000000e+00    4.000000e+00    4.000000e+00    0.000000e+00 
   0.000000e+00    0.000000e+00    0.000000e+00    0.000000e+00    0.000000e+00    0.000000e+00    0.000000e+00    0.000000e+00    2.000000e+00 
   0.000000e+00   -2.322686e-04   -8.383079e-04   -1.682207e-03   -2.631521e-03   -2.631596e-03   -2.631641e-03   -2.631657e-03    0.000000e+00 
   0.000000e+00    3.895825e-08    7.790183e-08    1.168160e-07    1.556862e-07    9.453990e-04    1.837058e-03    2.672277e-03    0.000000e+00 
   0.000000e+00    3.514462e-04    1.263065e-03    2.527466e-03    3.955338e-03    4.424466e-03    4.857015e-03    5.218888e-03    0.000000e+00 
   0.000000e+00    6.670200e-04    1.121456e-03    1.375609e-03    1.453276e-03    1.453331e-03    1.453364e-03    1.453375e-03    0.000000e+00 
   0.000000e+00   -1.136320e-04   -2.272423e-04   -3.408092e-04   -4.543112e-04   -4.644526e-04   -3.943100e-04   -3.427380e-04    0.000000e+00 
   0.000000e+00    4.418524e-04    7.475319e-04    9.180280e-04    9.605363e-04    9.230273e-04    8.592664e-04    8.214653e-04    0.000000e+00 
   1.285298e+07    9.332420e+06    5.873435e+06    2.617154e+06    1.283933e+06    1.568770e+06    1.604598e+06    2.513314e+06 
   1.545602e+03    1.120305e+03    7.037808e+02    3.144023e+02    1.261886e+02    1.856855e+02    1.906390e+02    0.000000e+00 
   1.223362e+02    1.223128e+02    1.222662e+02    1.221962e+02    5.965279e-02    3.570316e-02    1.188629e-02    0.000000e+00 
1 2
2 3
3 4
4 5
5 6
6 7
7 8
8 9
ZONE T="Time=0.1199", STRANDID=1, SOLUTIONTIME=1.199049e-01, NODES=9, ELEMENTS=8, ZONETYPE=FELINESEG, DATAPACKING=BLOCK, VARLOCATION=([10,11,12]=CELLCENTERED)
   0.000000e+00    0.000000e+00    0.000000e+00    0.000000e+00    0.000000e+00    1.000000e+00    2.000000e+00    3.000000e+00    3.000000e+00 
   0.000000e+00    1.000000e+00    2.000000e+00    3.000000e+00    4.000000e+00    4.000000e+00    4.000000e+00    4.000000e+00    0.000000e+00 
   0.000000e+00    0.000000e+00    0.000000e+00    0.000000e+00    0.000000e+00    0.000000e+00    0.000000e+00    0.000000e+00    2.000000e+00 
   0.000000e+00   -4.966524e-04   -1.593523e-03   -2.733353e-03   -3.441993e-03   -3.442203e-03   -3.442330e-03   -3.442373e-03    0.000000e+00 
   0.000000e+00   -3.661166e-07   -7.321931e-07   -1.098190e-06   -1.464066e-06    3.406954e-05   -3.158086e-04   -7.486712e-04    0.000000e+00 
   0.000000e+00    7.077438e-04    2.448875e-03    4.698548e-03    7.081319e-03    4.373795e-03    1.483535e-03   -1.353309e-03    0.000000e+00 
   0.000000e+00    1.318693e-03    2.074393e-03    2.360187e-03    2.386730e-03    2.387466e-03    2.387907e-03    2.388054e-03    0.000000e+00 
   0.000000e+00    6.330156e-04    1.265837e-03    1.898269e-03    2.530117e-03    2.847355e-03    2.887126e-03    2.798888e-03    0.000000e+00 
   0.000000e+00    8.940878e-04    1.205914e-03    9.941278e-04    3.633049e-04   -2.212686e-04   -4.256616e-04   -4.293237e-04    0.000000e+00 
   2.808081e+07    1.623565e+07    9.380326e+06    9.000789e+06    1.231624e+07    5.432803e+06    1.619630e+06   -2.880677e+06 
   3.337101e+03    1.971035e+03    8.013896e+02    1.351438e+03    1.509947e+03    6.735181e+02    2.170901e+02    0.000000e+00 
   6.815046e+02    6.812951e+02    6.808764e+02    6.802484e+02    7.914109e-01    4.749843e-01    1.583511e-01    0.000000e+00 
1 2
2 3
3 4
4 5
5 6
6 7
7 8
8 9
ZONE T="Time=0.1399", STRANDID=1, SOLUTIONTIME=1.399049e-01, NODES=9, ELEMENTS=8, ZONETYPE=FELINESEG, DATAPACKING=BLOCK, VARLOCATION=([10,11,12]=CELLCENTERED)
   0.000000e+00    0.000000e+00    0.000000e+00    0.000000e+00    0.000000e+00    1.000000e+00    2.000000e+00    3.000000e+00    3.000000e+00 
   0.000000e+00    1.000000e+00    2.000000e+00    3.000000e+00    4.000000e+00    4.000000e+00    4.000000e+00    4.000000e+00    0.000000e+00 
   0.000000e+00    0.000000e+00    0.000000e+00    0.000000e+00    0.000000e+00    0.000000e+00    0.000000e+00    0.000000e+00    2.000000e+00 
   0.000000e+00   -5.066542e-04   -1.617663e-03   -2.754997e-03   -3.430410e-03   -3.430623e-03   -3.430752e-03   -3.430796e-03    0.000000e+00 
   0.000000e+00   -3.915866e-07   -7.831292e-07   -1.174584e-06   -1.565907e-06   -3.166327e-05   -4.577788e-04   -9.615579e-04    0.000000e+00 
   0.000000e+00    7.042799e-04    2.416808e-03    4.597102e-03    6.878893e-03    4.081018e-03    1.122127e-03   -1.750456e-03    0.000000e+00 
   0.000000e+00    1.306840e-03    2.026182e-03    2.271203e-03    2.279411e-03    2.280024e-03    2.280392e-03    2.280514e-03    0.000000e+00 
   0.000000e+00    6.555318e-04    1.310850e-03    1.965742e-03    2.619994e-03    2.931736e-03    2.937717e-03    2.825900e-03    0.000000e+00 
   0.000000e+00    9.100291e-04    1.214723e-03    9.779714e-04    3.118533e-04   -2.962584e-04   -5.002796e-04   -4.977325e-04    0.000000e+00 
   2.839641e+07    1.599732e+07    9.251128e+06    9.040452e+06    1.283532e+07    5.246359e+06    1.992279e+06   -3.453190e+06 
   3.369095e+03    1.934051e+03    8.097080e+02    1.416067e+03    1.576671e+03    6.676974e+02    2.819756e+02    0.000000e+00 
   7.057456e+02    7.055158e+02    7.050564e+02    7.043674e+02    6.599675e-01    3.959802e-01    1.319933e-01    0.000000e+00 
1 2
2 3
3 4
4 5
5 6
6 7
7 8
8 9
ZONE T="Time=0.1599", STRANDID=1, SOLUTIONTIME=1.599049e-01, NODES=9, ELEMENTS=8, ZONETYPE=FELINESEG, DATAPACKING=BLOCK, VARLOCATION=([10,11,12]=CELLCENTERED)
   0.000000e+00    0.000000e+00    0.000000e+00    0.000000e+00    0.000000e+00    1.000000e+00    2.000000e+00    3.000000e+00    3.000000e+00 
   0.000000e+00    1.000000e+00    2.000000e+00    3.000000e+00    4.000000e+00    4.000000e+00    4.000000e+00    4.000000e+00    0.000000e+00 
   0.000000e+00    0.000000e+00    0.000000e+00    0.000000e+00    0.000000e+00    0.000000e+00    0.000000e+00    0.000000e+00    2.000000e+00 
   0.000000e+00   -2.593956e-04   -9.067233e-04   -1.750989e-03   -2.617246e-03   -2.617335e-03   -2.617389e-03   -2.617407e-03    0.000000e+00 
   0.000000e+00   -2.890925e-08   -5.781799e-08   -8.672569e-08   -1.156318e-07    7.677259e-04    1.444931e-03    2.073603e-03    0.000000e+00 
   0.000000e+00    3.111740e-04    1.115044e-03    2.222059e-03    3.461875e-03    3.692408e-03    3.902305e-03    4.085244e-03    0.000000e+00 
   0.000000e+00    5.898281e-04    9.860903e-04    1.199125e-03    1.258904e-03    1.259089e-03    1.259200e-03    1.259237e-03    0.000000e+00 
   0.000000e+00   -5.634026e-05   -1.126895e-04   -1.690567e-04   -2.254508e-04   -2.253354e-04   -1.937909e-04   -1.771532e-04    0.000000e+00 
   0.000000e+00    4.859348e-04    7.767138e-04    8.824331e-04    8.255807e-04    7.160886e-04    6.453226e-04    6.202165e-04    0.000000e+00 
   1.272444e+07    8.790865e+06    4.939153e+06    2.555188e+06    1.601827e+06    1.263870e+06    8.189587e+05    1.239224e+06 
   1.503775e+03    1.042669e+03    5.945630e+02    2.174108e+02    2.184927e+02    1.606688e+02    9.836008e+01    0.000000e+00 
   6.065593e+01    6.066559e+01    6.068492e+01    6.071391e+01    1.993287e-01    1.196544e-01    3.989433e-02    0.000000e+00 
1 2
2 3
3 4
4 5
5 6
6 7
7 8
8 9
ZONE T="Time=0.1799", STRANDID=1, SOLUTIONTIME=1.799049e-01, NODES=9, ELEMENTS=8, ZONETYPE=FELINESEG, DATAPACKING=BLOCK, VARLOCATION=([10,11,12]=CELLCENTERED)
   0.000000e+00    0.000000e+00    0.000000e+00    0.000000e+00    0.000000e+00    1.000000e+00    2.000000e+00    3.000000e+00    3.000000e+00 
   0.000000e+00    1.000000e+00    2.000000e+00    3.000000e+00    4.000000e+00    4.000000e+00    4.000000e+00    4.000000e+00    0.000000e+00 
   0.000000e+00    0.000000e+00    0.000000e+00    0.000000e+00    0.000000e+00    0.000000e+00    0.000000e+00    0.000000e+00    2.000000e+00 
   0.000000e+00    1.453718e-05   -9.706273e-05   -5.453183e-04   -1.487582e-03   -1.487533e-03   -1.487503e-03   -1.487493e-03    0.000000e+00 
   0.000000e+00    3.212184e-07    6.423987e-07    9.635029e-07    1.284493e-06    1.460405e-03    3.155420e-03    4.851754e-03    0.000000e+00 
   0.000000e+00   -1.048178e-04   -2.897780e-04   -3.977926e-04   -3.819687e-04    2.833859e-03    6.196096e-03    9.451536e-03    0.000000e+00 
   0.000000e+00   -1.762602e-04   -1.662339e-04   -4.053989e-05    4.900951e-05    4.859048e-05    4.833898e-05    4.825513e-05    0.000000e+00 
   0.000000e+00   -7.566268e-04   -1.513071e-03   -2.269151e-03   -3.024685e-03   -3.348513e-03   -3.327711e-03   -3.205595e-03    0.000000e+00 
   0.000000e+00    1.040088e-05    2.484257e-04    6.745007e-04    1.225615e-03    1.630999e-03    1.717447e-03    1.678313e-03    0.000000e+00 
   4.116294e+06    4.436247e+06    6.651896e+06    7.633660e+06    1.090429e+07    3.773407e+06    2.380003e+06    5.039412e+06 
   4.945589e+02    5.950477e+02    8.801460e+02    9.969808e+02    1.288374e+03    4.081284e+02    3.257908e+02    0.000000e+00 
   8.145844e+02    8.143882e+02    8.139958e+02    8.134074e+02    4.511240e-01    2.707723e-01    9.027375e-02    0.000000e+00 
1 2
2 3
3 4
4 5
5 6
6 7
7 8
8 9
ZONE T="Time=0.1999", STRANDID=1, SOLUTIONTIME=1.999049e-01, NODES=9, ELEMENTS=8, ZONETYPE=FELINESEG, DATAPACKING=BLOCK, VARLOCATION=([10,11,12]=CELLCENTERED)
   0.000000e+00    0.000000e+00    0.000000e+00    0.000000e+00    0.000000e+00    1.000000e+00    2.000000e+00    3.000000e+00    3.000000e+00 
   0.000000e+00    1.000000e+00    2.000000e+00    3.000000e+00    4.000000e+00    4.000000e+00    4.000000e+00    4.000000e+00    0.000000e+00 
   0.000000e+00    0.000000e+00    0.000000e+00    0.000000e+00    0.000000e+00    0.000000e+00    0.000000e+00    0.000000e+00    2.000000e+00 
   0.000000e+00    1.106130e-04    2.369164e-04    9.331978e-05   -5.504112e-04   -5.503207e-04   -5.502661e-04   -5.502474e-04    0.000000e+00 
   0.000000e+00    3.091515e-07    6.182706e-07    9.273252e-07    1.236283e-06    1.226386e-03    2.768927e-03    4.377399e-03    0.000000e+00 
   0.000000e+00   -2.503811e-04   -8.159799e-04   -1.457598e-03   -2.050144e-03    1.360544e-03    5.003912e-03    8.631004e-03    0.000000e+00 
   0.000000e+00   -4.533085e-04   -6.367415e-04   -6.242160e-04   -5.716486e-04   -5.720584e-04   -5.723043e-04   -5.723863e-04    0.000000e+00 
   0.000000e+00   -7.989225e-04   -1.597691e-03   -2.396153e-03   -3.194153e-03   -3.579431e-03   -3.660664e-03   -3.599528e-03    0.000000e+00 
   0.000000e+00   -1.691619e-04   -3.528282e-05    3.611190e-04    9.529955e-04    1.437532e-03    1.603653e-03    1.604933e-03    0.000000e+00 
   9.271882e+06    5.914117e+06    5.978623e+06    7.628835e+06    1.194290e+07    5.200574e+06    1.058822e+06    2.475874e+06 
   1.131175e+03    5.117447e+02    8.640338e+02    1.120186e+03    1.414324e+03    6.182288e+02    1.390499e+02    0.000000e+00 
   8.601200e+02    8.599545e+02    8.596235e+02    8.591272e+02    4.411950e-01    2.647333e-01    8.824716e-02    0.000000e+00 
1 2
2 3
3 4
4 5
5 6
6 7
7 8
8 9
ZONE T="Time=0.2199", STRANDID=1, SOLUTIONTIME=2.199049e-01, NODES=9, ELEMENTS=8, ZONETYPE=FELINESEG, DATAPACKING=BLOCK, VARLOCATION=([10,11,12]=CELLCENTERED)
   0.000000e+00    0.000000e+00    0.000000e+00    0.000000e+00    0.000000e+00    1.000000e+00    2.000000e+00    3.000000e+00    3.000000e+00 
   0.000000e+00    1.000000e+00    2.000000e+00    3.000000e+00    4.000000e+00    4.000000e+00    4.000000e+00    4.000000e+00    0.000000e+00 
   0.000000e+00    0.000000e+00    0.000000e+00    0.000000e+00    0.000000e+00    0.000000e+00    0.000000e+00    0.000000e+00    2.000000e+00 
   0.000000e+00    4.520024e-05    1.248994e-04    1.527191e-04    3.930790e-05    3.936194e-05    3.939452e-05    3.940563e-05    0.000000e+00 
   0.000000e+00    2.339611e-08    4.680500e-08    7.023941e-08    9.371212e-08    3.218389e-04    8.343425e-04    1.469233e-03    0.000000e+00 
   0.000000e+00   -1.401772e-04   -5.065501e-04   -1.017325e-03   -1.593775e-03   -2.182612e-04    1.378483e-03    3.137022e-03    0.000000e+00 
   0.000000e+00   -2.668557e-04   -4.522114e-04   -5.559938e-04   -5.861217e-04   -5.862597e-04   -5.863426e-04   -5.863702e-04    0.000000e+00 
   0.000000e+00   -3.166605e-04   -6.333450e-04   -9.500776e-04   -1.266882e-03   -1.488102e-03   -1.696078e-03   -1.792520e-03    0.000000e+00 
   0.000000e+00   -7.651845e-05   -6.850182e-05    2.788449e-05    2.132327e-04    4.247717e-04    5.893341e-04    6.592409e-04    0.000000e+00 
   4.259757e+06    2.780055e+06    2.857294e+06    2.911796e+06    4.621573e+06    4.338106e+06    3.156232e+06   -3.971138e+06 
   5.487847e+02    3.818171e+02    2.585799e+02    3.803911e+02    5.158653e+02    5.124991e+02    3.760402e+02    0.000000e+00 
   3.409167e+02    3.409426e+02    3.409944e+02    3.410720e+02    1.486314e-01    8.918891e-02    2.973132e-02    0.000000e+00 
1 2
2 3
3 4
4 5
5 6
6 7
7 8
8 9
ZONE T="Time=0.2399", STRANDID=1, SOLUTIONTIME=2.399049e-01, NODES=9, ELEMENTS=8, ZONETYPE=FELINESEG, DATAPACKING=BLOCK, VARLOCATION=([10,11,12]=CELLCENTERED)
   0.000000e+00    0.000000e+00    0.000000e+00    0.000000e+00    0.000000e+00    1.000000e+00    2.000000e+00    3.000000e+00    3.000000e+00 
   0.000000e+00    1.000000e+00    2.000000e+00    3.000000e+00    4.000000e+00    4.000000e+00    4.000000e+00    4.000000e+00    0.000000e+00 
   0.000000e+00    0.000000e+00    0.000000e+00    0.000000e+00    0.000000e+00    0.000000e+00    0.000000e+00    0.000000e+00    2.000000e+00 
   0.000000e+00    1.219463e-06    4.484819e-05    1.776142e-04    4.166394e-04    4.166531e-04    4.166613e-04    4.166641e-04    0.000000e+00 
   0.000000e+00   -1.399670e-07   -2.799037e-07   -4.197796e-07   -5.595645e-07   -3.111196e-04   -5.704796e-04   -7.215136e-04    0.000000e+00 
   0.000000e+00   -3.787934e-05   -1.831664e-04   -4.632843e-04   -8.501953e-04   -1.105909e-03   -1.224906e-03   -1.138690e-03    0.000000e+00 
   0.000000e+00   -8.423358e-05   -2.115282e-04   -3.446016e-04   -4.102209e-04   -4.101218e-04   -4.100622e-04   -4.100424e-04    0.000000e+00 
   0.000000e+00    6.659297e-05    1.330696e-04    1.993135e-04    2.652085e-04    2.145271e-04    8.409085e-06   -1.429385e-04    0.000000e+00 
   0.000000e+00   -1.284060e-05   -8.249932e-05   -1.858975e-04   -2.898909e-04   -3.052310e-04   -2.022607e-04   -1.202423e-04    0.000000e+00 
   1.565002e+06    2.395575e+06    2.601763e+06    2.361876e+06    2.393582e+06    3.881035e+06    4.084262e+06   -6.086749e+06 
   1.969478e+02    2.849184e+02    2.892709e+02    2.754031e+02    2.644086e+02    4.767236e+02    5.021853e+02    0.000000e+00 
   7.169399e+01    7.156870e+01    7.131818e+01    7.094255e+01    1.066982e-01    6.407403e-02    2.136720e-02    0.000000e+00 
1 2
2 3
3 4
4 5
5 6
6 7
7 8
8 9
ZONE T="Time=0.2599", STRANDID=1, SOLUTIONTIME=2.599049e-01, NODES=9, ELEMENTS=8, ZONETYPE=FELINESEG, DATAPACKING=BLOCK, VARLOCATION=([10,11,12]=CELLCENTERED)
   0.000000e+00    0.000000e+00    0.000000e+00    0.000000e+00    0.000000e+00    1.000000e+00    2.000000e+00    3.000000e+00    3.000000e+00 
   0.000000e+00    1.000000e+00    2.000000e+00    3.000000e+00    4.000000e+00    4.000000e+00    4.000000e+00    4.000000e+00    0.000000e+00 
   0.000000e+00    0.000000e+00    0.000000e+00    0.000000e+00    0.000000e+00    0.000000e+00    0.000000e+00    0.000000e+00    2.000000e+00 
   0.000000e+00    5.687121e-05    2.128598e-04    4.435193e-04    7.198447e-04    7.198649e-04    7.198771e-04    7.198813e-04    0.000000e+00 
   0.000000e+00   -2.849569e-08   -5.698324e-08   -8.545451e-08   -1.139014e-07   -2.907546e-04   -5.668850e-04   -8.189295e-04    0.000000e+00 
   0.000000e+00   -7.021470e-05   -2.615788e-04   -5.418478e-04   -8.709248e-04   -1.123200e-03   -1.365200e-03   -1.575577e-03    0.000000e+00 
   0.000000e+00   -1.357103e-04   -2.417272e-04   -3.121541e-04   -3.377224e-04   -3.377435e-04   -3.377562e-04   -3.377604e-04    0.000000e+00 
   0.000000e+00    6.048691e-05    1.209546e-04    1.813837e-04    2.417552e-04    2.541340e-04    2.257465e-04    2.010201e-04    0.000000e+00 
   0.000000e+00   -1.101701e-04   -1.977731e-04   -2.586644e-04   -2.887757e-04   -2.872898e-04   -2.630595e-04   -2.455439e-04    0.000000e+00 
   2.713192e+06    2.221595e+06    1.664988e+06    9.671051e+05    5.589949e+05    7.095459e+05    7.390649e+05   -1.245644e+06 
   3.208972e+02    2.624461e+02    1.963284e+02    1.134345e+02    6.815120e+01    8.429452e+01    8.808684e+01    0.000000e+00 
   6.512020e+01    6.509948e+01    6.505805e+01    6.499594e+01    2.272314e-02    1.363874e-02    4.547059e-03    0.000000e+00 
1 2
2 3
3 4
4 5
5 6
6 7
7 8
8 9
ZONE T="Time=0.2799", STRANDID=1, SOLUTIONTIME=2.799049e-01, NODES=9, ELEMENTS=8, ZONETYPE=FELINESEG, DATAPACKING=BLOCK, VARLOCATION=([10,11,12]=CELLCENTERED)
   0.000000e+00    0.000000e+00    0.000000e+00    0.000000e+00    0.000000e+00    1.000000e+00    2.000000e+00    3.000000e+00    3.000000e+00 
   0.000000e+00    1.000000e+00    2.000000e+00    3.000000e+00    4.000000e+00    4.000000e+00    4.000000e+00    4.000000e+00    0.000000e+00 
   0.000000e+00    0.000000e+00    0.000000e+00    0.000000e+00    0.000000e+00    0.000000e+00    0.000000e+00    0.000000e+00    2.000000e+00 
   0.000000e+00    1.210116e-04    3.929145e-04    6.942050e-04    9.386766e-04    9.386991e-04    9.387126e-04    9.387173e-04    0.000000e+00 
   0.000000e+00    1.299299e-07    2.598308e-07    3.896735e-07    5.194291e-07   -1.693083e-04   -3.702292e-04   -6.599556e-04    0.000000e+00 
   0.000000e+00   -1.129796e-04   -3.615612e-04   -6.316908e-04   -8.693079e-04   -9.552145e-04   -1.176739e-03   -1.580733e-03    0.000000e+00 
   0.000000e+00   -2.027695e-04   -2.747169e-04   -2.558896e-04   -2.260747e-04   -2.262092e-04   -2.262900e-04   -2.263169e-04    0.000000e+00 
   0.000000e+00    1.486694e-05    2.983982e-05    4.502453e-05    6.052690e-05    1.335292e-04    3.206904e-04    4.538370e-04    0.000000e+00 
   0.000000e+00   -2.187760e-04   -3.044255e-04   -2.836976e-04   -1.976488e-04   -1.662270e-04   -2.467450e-04   -3.157960e-04    0.000000e+00 
   5.634435e+06    2.810322e+06    1.144825e+06    1.614362e+06    2.442593e+06    3.348474e+06    3.533992e+06    5.216430e+06 
   6.612238e+02    3.287058e+02    1.332504e+02    1.820990e+02    2.428064e+02    4.138816e+02    4.374111e+02    0.000000e+00 
   1.600574e+01    1.611980e+01    1.634787e+01    1.668984e+01    1.448522e-01    8.694052e-02    2.898504e-02    0.000000e+00 
1 2
2 3
3 4
4 5
5 6
6 7
7 8
8 9
ZONE T="Time=0.2999", STRANDID=1, SOLUTIONTIME=2.999049e-01, NODES=9, ELEMENTS=8, ZONETYPE=FELINESEG, DATAPACKING=BLOCK, VARLOCATION=([10,11,12]=CELLCENTERED)
   0.000000e+00    0.000000e+00    0.000000e+00    0.000000e+00    0.000000e+00    1.000000e+00    2.000000e+00    3.000000e+00    3.000000e+00 
   0.000000e+00    1.000000e+00    2.000000e+00    3.000000e+00    4.000000e+00    4.000000e+00    4.000000e+00    4.000000e+00    0.000000e+00 
   0.000000e+00    0.000000e+00    0.000000e+00    0.000000e+00    0.000000e+00    0.000000e+00    0.000000e+00    0.000000e+00    2.000000e+00 
   0.000000e+00    7.263901e-05    2.798877e-04    6.139063e-04    1.084470e-03    1.084451e-03    1.084439e-03    1.084435e-03    0.000000e+00 
   0.000000e+00    2.576419e-08    5.150627e-08    7.720413e-08    1.028357e-07   -6.316989e-04   -1.442166e-03   -2.392313e-03    0.000000e+00 
   0.000000e+00   -1.140682e-05   -2.090045e-05   -1.532982e-06    4.805798e-05   -1.409579e-03   -3.125171e-03   -5.054559e-03    0.000000e+00 
   0.000000e+00   -1.633395e-05    2.116468e-06    3.700283e-05    5.663893e-05    5.666740e-05    5.668445e-05    5.669014e-05    0.000000e+00 
   0.000000e+00    3.349333e-04    6.699318e-04    1.005061e-03    1.340385e-03    1.583163e-03    1.842550e-03    1.978217e-03    0.000000e+00 
   0.000000e+00   -1.423547e-04   -2.706640e-04   -3.990264e-04   -5.465174e-04   -7.209380e-04   -8.945014e-04   -9.810407e-04    0.000000e+00 
   1.874093e+06    1.660172e+06    1.698726e+06    1.975028e+06    4.539581e+06    4.660714e+06    4.105618e+06    5.398657e+06 
   2.588246e+02    2.213419e+02    2.301704e+02    2.679323e+02    5.431082e+02    5.582040e+02    4.949616e+02    0.000000e+00 
   3.605892e+02    3.606594e+02    3.607996e+02    3.610098e+02    3.065463e-02    1.836240e-02    6.115733e-03    0.000000e+00 
1 2
2 3
3 4
4 5
5 6
6 7
7 8
8 9
ZONE T="Time=0.3199", STRANDID=1, SOLUTIONTIME=3.199049e-01, NODES=9, ELEMENTS=8, ZONETYPE=FELINESEG, DATAPACKING=BLOCK, VARLOCATION=([10,11,12]=CELLCENTERED)
   0.000000e+00    0.000000e+00    0.000000e+00    0.000000e+00    0.000000e+00    1.000000e+00    2.000000e+00    3.000000e+00    3.000000e+00 
   0.000000e+00    1.000000e+00    2.000000e+00    3.000000e+00    4.000000e+00    4.000000e+00    4.000000e+00    4.000000e+00    0.000000e+00 
   0.000000e+00    0.000000e+00    0.000000e+00    0.000000e+00    0.000000e+00    0.000000e+00    0.000000e+00    0.000000e+00    2.000000e+00 
   0.000000e+00   -2.788752e-05    4.413008e-05    4.347831e-04    1.325567e-03    1.325491e-03    1.325445e-03    1.325429e-03    0.000000e+00 
   0.000000e+00   -2.602752e-07   -5.205332e-07   -7.807569e-07   -1.040929e-06   -1.456732e-03   -3.250548e-03   -5.149200e-03    0.000000e+00 
   0.000000e+00    1.436289e-04    4.530806e-04    7.736223e-04    1.033607e-03   -2.528335e-03   -6.378486e-03   -1.027885e-02    0.000000e+00 
   0.000000e+00    2.561682e-04    3.360050e-04    2.919762e-04    2.400345e-04    2.404114e-04    2.406375e-04    2.407129e-04    0.000000e+00 
   0.000000e+00    8.326478e-04    1.665183e-03    2.497493e-03    3.329464e-03    3.752619e-03    3.904095e-03    3.890531e-03    0.000000e+00 
   0.000000e+00    1.641952e-05   -1.972948e-04   -6.144893e-04   -1.189057e-03   -1.671563e-03   -1.875757e-03   -1.905864e-03    0.000000e+00 
   4.891187e+06    4.894577e+06    5.971565e+06    7.337579e+06    1.184845e+07    6.082769e+06    1.093498e+06   -3.909675e+05 