TITLE = "FEM Line Output"
VARIABLES = "X", "Y", "Z", "U", "V", "W", "RX", "RY", "RZ", "Stress", "Moment", "Torsion"
ZONE T="Time=0.0498", STRANDID=1, SOLUTIONTIME=4.976235e-02, NODES=11, ELEMENTS=10, ZONETYPE=FELINESEG, DATAPACKING=BLOCK, VARLOCATION=([10,11,12]=CELLCENTERED)
   0.000000e+00    5.000000e-01    1.000000e+00    1.500000e+00    2.000000e+00    2.500000e+00    3.000000e+00    3.500000e+00    4.000000e+00    0.000000e+00    4.000000e+00 
   2.000000e+00    2.000000e+00    2.000000e+00    2.000000e+00    2.000000e+00    2.000000e+00    2.000000e+00    2.000000e+00    2.000000e+00    0.000000e+00    0.000000e+00 
   0.000000e+00    0.000000e+00    0.000000e+00    0.000000e+00    0.000000e+00    0.000000e+00    0.000000e+00    0.000000e+00    0.000000e+00    0.000000e+00    0.000000e+00 
   0.000000e+00    0.000000e+00    0.000000e+00    0.000000e+00    0.000000e+00    0.000000e+00    0.000000e+00    0.000000e+00    0.000000e+00    0.000000e+00    0.000000e+00 
  -6.630301e-06   -4.159210e-04   -7.648063e-04   -1.000602e-03   -1.085143e-03   -1.002160e-03   -7.670892e-04   -4.176543e-04   -6.805694e-06    0.000000e+00    0.000000e+00 
   0.000000e+00    0.000000e+00    0.000000e+00    0.000000e+00    0.000000e+00    0.000000e+00    0.000000e+00    0.000000e+00    0.000000e+00    0.000000e+00    0.000000e+00 
   0.000000e+00    0.000000e+00    0.000000e+00    0.000000e+00    0.000000e+00    0.000000e+00    0.000000e+00    0.000000e+00    0.000000e+00    0.000000e+00    0.000000e+00 
   0.000000e+00    0.000000e+00    0.000000e+00    0.000000e+00    0.000000e+00    0.000000e+00    0.000000e+00    0.000000e+00    0.000000e+00    0.000000e+00    0.000000e+00 
  -8.392552e-04   -7.775243e-04   -6.002206e-04   -3.300780e-04   -1.707780e-06    3.275619e-04    6.000010e-04    7.798649e-04    8.427594e-04    0.000000e+00    0.000000e+00 
   2.457565e+06    4.613753e+06    6.175805e+06    6.950022e+06    6.950065e+06    6.211806e+06    4.669615e+06    2.504049e+06   -6.630301e+05   -6.805694e+05 
   4.095860e+02    7.689435e+02    1.029280e+03    1.158314e+03    1.158321e+03    1.035280e+03    7.782536e+02    4.173332e+02    0.000000e+00    0.000000e+00 
   0.000000e+00    0.000000e+00    0.000000e+00    0.000000e+00    0.000000e+00    0.000000e+00    0.000000e+00    0.000000e+00    0.000000e+00    0.000000e+00 
1 2
2 3
3 4
4 5
5 6
6 7
7 8
8 9
10 1
11 9
ZONE T="Time=0.0998", STRANDID=1, SOLUTIONTIME=9.976235e-02, NODES=11, ELEMENTS=10, ZONETYPE=FELINESEG, DATAPACKING=BLOCK, VARLOCATION=([10,11,12]=CELLCENTERED)
   0.000000e+00    5.000000e-01    1.000000e+00    1.500000e+00    2.000000e+00    2.500000e+00    3.000000e+00    3.500000e+00    4.000000e+00    0.000000e+00    4.000000e+00 
   2.000000e+00    2.000000e+00    2.000000e+00    2.000000e+00    2.000000e+00    2.000000e+00    2.000000e+00    2.000000e+00    2.000000e+00    0.000000e+00    0.000000e+00 
   0.000000e+00    0.000000e+00    0.000000e+00    0.000000e+00    0.000000e+00    0.000000e+00    0.000000e+00    0.000000e+00    0.000000e+00    0.000000e+00    0.000000e+00 
   0.000000e+00    0.000000e+00    0.000000e+00    0.000000e+00    0.000000e+00    0.000000e+00    0.000000e+00    0.000000e+00    0.000000e+00    0.000000e+00    0.000000e+00 
   5.518512e-06    3.557578e-04    6.554670e-04    8.596209e-04    9.335592e-04    8.607330e-04    6.570968e-04    3.569950e-04    5.643644e-06    0.000000e+00    0.000000e+00 
   0.000000e+00    0.000000e+00    0.000000e+00    0.000000e+00    0.000000e+00    0.000000e+00    0.000000e+00    0.000000e+00    0.000000e+00    0.000000e+00    0.000000e+00 
   0.000000e+00    0.000000e+00    0.000000e+00    0.000000e+00    0.000000e+00    0.000000e+00    0.000000e+00    0.000000e+00    0.000000e+00    0.000000e+00    0.000000e+00 
   0.000000e+00    0.000000e+00    0.000000e+00    0.000000e+00    0.000000e+00    0.000000e+00    0.000000e+00    0.000000e+00    0.000000e+00    0.000000e+00    0.000000e+00 
   7.177056e-04    6.662314e-04    5.174293e-04    2.875155e-04    1.219278e-06   -2.857193e-04   -5.172728e-04   -6.679024e-04   -7.202069e-04    0.000000e+00    0.000000e+00 
   2.050654e+06    3.886546e+06    5.298399e+06    6.146919e+06    6.146948e+06    5.324107e+06    3.926430e+06    2.083826e+06    5.518512e+05    5.643644e+05 
   3.417688e+02    6.477447e+02    8.830489e+02    1.024466e+03    1.024471e+03    8.873334e+02    6.543919e+02    3.472974e+02    0.000000e+00    0.000000e+00 
   0.000000e+00    0.000000e+00    0.000000e+00    0.000000e+00    0.000000e+00    0.000000e+00    0.000000e+00    0.000000e+00    0.000000e+00    0.000000e+00 
1 2
2 3
3 4
4 5
5 6
6 7
7 8
8 9
10 1
11 9
ZONE T="Time=0.1498", STRANDID=1, SOLUTIONTIME=1.497623e-01, NODES=11, ELEMENTS=10, ZONETYPE=FELINESEG, DATAPACKING=BLOCK, VARLOCATION=([10,11,12]=CELLCENTERED)
   0.000000e+00    5.000000e-01    1.000000e+00    1.500000e+00    2.000000e+00    2.500000e+00    3.000000e+00    3.500000e+00    4.000000e+00    0.000000e+00    4.000000e+00 
   2.000000e+00    2.000000e+00    2.000000e+00    2.000000e+00    2.000000e+00    2.000000e+00    2.000000e+00    2.000000e+00    2.000000e+00    0.000000e+00    0.000000e+00 
   0.000000e+00    0.000000e+00    0.000000e+00    0.000000e+00    0.000000e+00    0.000000e+00    0.000000e+00    0.000000e+00    0.000000e+00    0.000000e+00    0.000000e+00 
   0.000000e+00    0.000000e+00    0.000000e+00    0.000000e+00    0.000000e+00    0.000000e+00    0.000000e+00    0.000000e+00    0.000000e+00    0.000000e+00    0.000000e+00 
  -1.996978e-06   -1.483690e-04   -2.759358e-04   -3.659942e-04   -4.000677e-04   -3.660045e-04   -2.759511e-04   -1.483808e-04   -1.998437e-06    0.000000e+00    0.000000e+00 
   0.000000e+00    0.000000e+00    0.000000e+00    0.000000e+00    0.000000e+00    0.000000e+00    0.000000e+00    0.000000e+00    0.000000e+00    0.000000e+00    0.000000e+00 
   0.000000e+00    0.000000e+00    0.000000e+00    0.000000e+00    0.000000e+00    0.000000e+00    0.000000e+00    0.000000e+00    0.000000e+00    0.000000e+00    0.000000e+00 
   0.000000e+00    0.000000e+00    0.000000e+00    0.000000e+00    0.000000e+00    0.000000e+00    0.000000e+00    0.000000e+00    0.000000e+00    0.000000e+00    0.000000e+00 
  -2.990186e-04   -2.801978e-04   -2.238310e-04   -1.302393e-04   -1.116239e-08    1.302225e-04    2.238289e-04    2.802132e-04    2.990420e-04    0.000000e+00    0.000000e+00 
   7.526891e+05    1.501630e+06    2.241590e+06    2.967105e+06    2.967095e+06    2.241807e+06    1.502004e+06    7.530242e+05   -1.996978e+05   -1.998437e+05 
   1.254457e+02    2.502667e+02    3.735909e+02    4.945076e+02    4.945059e+02    3.736270e+02    2.503290e+02    1.255015e+02    0.000000e+00    0.000000e+00 
   0.000000e+00    0.000000e+00    0.000000e+00    0.000000e+00    0.000000e+00    0.000000e+00    0.000000e+00    0.000000e+00    0.000000e+00    0.000000e+00 
1 2
2 3
3 4
4 5
5 6
6 7
7 8
8 9
10 1
11 9
ZONE T="Time=0.1998", STRANDID=1, SOLUTIONTIME=1.997623e-01, NODES=11, ELEMENTS=10, ZONETYPE=FELINESEG, DATAPACKING=BLOCK, VARLOCATION=([10,11,12]=CELLCENTERED)
   0.000000e+00    5.000000e-01    1.000000e+00    1.500000e+00    2.000000e+00    2.500000e+00    3.000000e+00    3.500000e+00    4.000000e+00    0.000000e+00    4.000000e+00 
   2.000000e+00    2.000000e+00    2.000000e+00    2.000000e+00    2.000000e+00    2.000000e+00    2.000000e+00    2.000000e+00    2.000000e+00    0.000000e+00    0.000000e+00 
   0.000000e+00    0.000000e+00    0.000000e+00    0.000000e+00    0.000000e+00    0.000000e+00    0.000000e+00    0.000000e+00    0.000000e+00    0.000000e+00    0.000000e+00 
   0.000000e+00    0.000000e+00    0.000000e+00    0.000000e+00    0.000000e+00    0.000000e+00    0.000000e+00    0.000000e+00    0.000000e+00    0.000000e+00    0.000000e+00 
   2.744151e-06    2.005309e-04    3.725655e-04    4.935584e-04    5.391326e-04    4.936399e-04    3.726851e-04    2.006220e-04    2.753669e-06    0.000000e+00    0.000000e+00 
   0.000000e+00    0.000000e+00    0.000000e+00    0.000000e+00    0.000000e+00    0.000000e+00    0.000000e+00    0.000000e+00    0.000000e+00    0.000000e+00    0.000000e+00 
   0.000000e+00    0.000000e+00    0.000000e+00    0.000000e+00    0.000000e+00    0.000000e+00    0.000000e+00    0.000000e+00    0.000000e+00    0.000000e+00    0.000000e+00 
   0.000000e+00    0.000000e+00    0.000000e+00    0.000000e+00    0.000000e+00    0.000000e+00    0.000000e+00    0.000000e+00    0.000000e+00    0.000000e+00    0.000000e+00 
   4.041887e-04    3.783594e-04    3.013338e-04    1.744998e-04    8.917780e-08   -1.743681e-04   -3.013216e-04   -3.784817e-04   -4.043722e-04    0.000000e+00    0.000000e+00 
   1.032489e+06    2.047189e+06    3.024918e+06    3.950597e+06    3.950587e+06    3.026776e+06    2.050116e+06    1.034952e+06    2.744151e+05    2.753669e+05 
   1.720781e+02    3.411913e+02    5.041429e+02    6.584196e+02    6.584180e+02    5.044526e+02    3.416792e+02    1.724886e+02    0.000000e+00    0.000000e+00 
   0.000000e+00    0.000000e+00    0.000000e+00    0.000000e+00    0.000000e+00    0.000000e+00    0.000000e+00    0.000000e+00    0.000000e+00    0.000000e+00 
1 2
2 3
3 4
4 5
5 6
6 7
7 8
8 9
10 1
11 9
ZONE T="Time=0.2498", STRANDID=1, SOLUTIONTIME=2.497623e-01, NODES=11, ELEMENTS=10, ZONETYPE=FELINESEG, DATAPACKING=BLOCK, VARLOCATION=([10,11,12]=CELLCENTERED)
   0.000000e+00    5.000000e-01    1.000000e+00    1.500000e+00    2.000000e+00    2.500000e+00    3.000000e+00    3.500000e+00    4.000000e+00    0.000000e+00    4.000000e+00 
   2.000000e+00    2.000000e+00    2.000000e+00    2.000000e+00    2.000000e+00    2.000000e+00    2.000000e+00    2.000000e+00    2.000000e+00    0.000000e+00    0.000000e+00 
   0.000000e+00    0.000000e+00    0.000000e+00    0.000000e+00    0.000000e+00    0.000000e+00    0.000000e+00    0.000000e+00    0.000000e+00    0.000000e+00    0.000000e+00 
   0.000000e+00    0.000000e+00    0.000000e+00    0.000000e+00    0.000000e+00    0.000000e+00    0.000000e+00    0.000000e+00    0.000000e+00    0.000000e+00    0.000000e+00 
  -6.510562e-06   -4.359825e-04   -8.054105e-04   -1.059679e-03   -1.152976e-03   -1.060667e-03   -8.068586e-04   -4.370820e-04   -6.621955e-06    0.000000e+00    0.000000e+00 
   0.000000e+00    0.000000e+00    0.000000e+00    0.000000e+00    0.000000e+00    0.000000e+00    0.000000e+00    0.000000e+00    0.000000e+00    0.000000e+00    0.000000e+00 
   0.000000e+00    0.000000e+00    0.000000e+00    0.000000e+00    0.000000e+00    0.000000e+00    0.000000e+00    0.000000e+00    0.000000e+00    0.000000e+00    0.000000e+00 
   0.000000e+00    0.000000e+00    0.000000e+00    0.000000e+00    0.000000e+00    0.000000e+00    0.000000e+00    0.000000e+00    0.000000e+00    0.000000e+00    0.000000e+00 
  -8.793014e-04   -8.184135e-04   -6.407755e-04   -3.609204e-04   -1.083137e-06    3.593245e-04    6.406360e-04    8.198980e-04    8.815238e-04    0.000000e+00    0.000000e+00 
   2.428078e+06    4.664056e+06    6.519579e+06    7.867829e+06    7.867848e+06    6.542402e+06    4.699493e+06    2.457571e+06   -6.510562e+05   -6.621955e+05 
   4.046717e+02    7.773271e+02    1.086575e+03    1.311279e+03    1.311282e+03    1.090379e+03    7.832332e+02    4.095869e+02    0.000000e+00    0.000000e+00 
   0.000000e+00    0.000000e+00    0.000000e+00    0.000000e+00    0.000000e+00    0.000000e+00    0.000000e+00    0.000000e+00    0.000000e+00    0.000000e+00 
1 2
2 3
3 4
4 5
5 6
6 7
7 8
8 9
10 1
11 9
ZONE T="Time=0.2998", STRANDID=1, SOLUTIONTIME=2.997623e-01, NODES=11, ELEMENTS=10, ZONETYPE=FELINESEG, DATAPACKING=BLOCK, VARLOCATION=([10,11,12]=CELLCENTERED)
   0.000000e+00    5.000000e-01    1.000000e+00    1.500000e+00    2.000000e+00    2.500000e+00    3.000000e+00    3.500000e+00    4.000000e+00    0.000000e+00    4.000000e+00 
   2.000000e+00    2.000000e+00    2.000000e+00    2.000000e+00    2.000000e+00    2.000000e+00    2.000000e+00    2.000000e+00    2.000000e+00    0.000000e+00    0.000000e+00 
   0.000000e+00    0.000000e+00    0.000000e+00    0.000000e+00    0.000000e+00    0.000000e+00    0.000000e+00    0.000000e+00    0.000000e+00    0.000000e+00    0.000000e+00 
   0.000000e+00    0.000000e+00    0.000000e+00    0.000000e+00    0.000000e+00    0.000000e+00    0.000000e+00    0.000000e+00    0.000000e+00    0.000000e+00    0.000000e+00 
   8.369262e-06    5.544140e-04    1.023433e-03    1.345316e-03    1.463000e-03    1.346707e-03    1.025471e-03    5.559616e-04    8.525949e-06    0.000000e+00    0.000000e+00 
   0.000000e+00    0.000000e+00    0.000000e+00    0.000000e+00    0.000000e+00    0.000000e+00    0.000000e+00    0.000000e+00    0.000000e+00    0.000000e+00    0.000000e+00 
   0.000000e+00    0.000000e+00    0.000000e+00    0.000000e+00    0.000000e+00    0.000000e+00    0.000000e+00    0.000000e+00    0.000000e+00    0.000000e+00    0.000000e+00 
   0.000000e+00    0.000000e+00    0.000000e+00    0.000000e+00    0.000000e+00    0.000000e+00    0.000000e+00    0.000000e+00    0.000000e+00    0.000000e+00    0.000000e+00 
   1.118246e-03    1.040035e-03    8.124586e-04    4.559045e-04    1.524815e-06   -4.536580e-04   -8.122626e-04   -1.042125e-03   -1.121375e-03    0.000000e+00    0.000000e+00 
   3.118001e+06    5.966304e+06    8.281123e+06    9.885656e+06    9.885687e+06    8.313261e+06    6.016188e+06    3.159506e+06    8.369262e+05    8.525949e+05 
   5.196564e+02    9.943641e+02    1.380160e+03    1.647576e+03    1.647582e+03    1.385516e+03    1.002678e+03    5.265738e+02    0.000000e+00    0.000000e+00 
   0.000000e+00    0.000000e+00    0.000000e+00    0.000000e+00    0.000000e+00    0.000000e+00    0.000000e+00    0.000000e+00    0.000000e+00    0.000000e+00 
1 2
2 3
3 4
4 5
5 6
6 7
7 8
8 9
10 1
11 9
ZONE T="Time=0.3498", STRANDID=1, SOLUTIONTIME=3.497623e-01, NODES=11, ELEMENTS=10, ZONETYPE=FELINESEG, DATAPACKING=BLOCK, VARLOCATION=([10,11,12]=CELLCENTERED)
   0.000000e+00    5.000000e-01    1.000000e+00    1.500000e+00    2.000000e+00    2.500000e+00    3.000000e+00    3.500000e+00    4.000000e+00    0.000000e+00    4.000000e+00 
   2.000000e+00    2.000000e+00    2.000000e+00    2.000000e+00    2.000000e+00    2.000000e+00    2.000000e+00    2.000000e+00    2.000000e+00    0.000000e+00    0.000000e+00 
   0.000000e+00    0.000000e+00    0.000000e+00    0.000000e+00    0.000000e+00    0.000000e+00    0.000000e+00    0.000000e+00    0.000000e+00    0.000000e+00    0.000000e+00 
   0.000000e+00    0.000000e+00    0.000000e+00    0.000000e+00    0.000000e+00    0.000000e+00    0.000000e+00    0.000000e+00    0.000000e+00    0.000000e+00    0.000000e+00 
  -7.373668e-06   -4.980477e-04   -9.206052e-04   -1.212100e-03   -1.319358e-03   -1.213134e-03   -9.221213e-04   -4.991989e-04   -7.490353e-06    0.000000e+00    0.000000e+00 
   0.000000e+00    0.000000e+00    0.000000e+00    0.000000e+00    0.000000e+00    0.000000e+00    0.000000e+00    0.000000e+00    0.000000e+00    0.000000e+00    0.000000e+00 
   0.000000e+00    0.000000e+00    0.000000e+00    0.000000e+00    0.000000e+00    0.000000e+00    0.000000e+00    0.000000e+00    0.000000e+00    0.000000e+00    0.000000e+00 
   0.000000e+00    0.000000e+00    0.000000e+00    0.000000e+00    0.000000e+00    0.000000e+00    0.000000e+00    0.000000e+00    0.000000e+00    0.000000e+00    0.000000e+00 
  -1.004413e-03   -9.354115e-04   -7.336775e-04   -4.144650e-04   -1.133899e-06    4.127943e-04    7.335315e-04    9.369656e-04    1.006740e-03    0.000000e+00    0.000000e+00 
   2.752268e+06    5.303025e+06    7.454330e+06    9.072458e+06    9.072475e+06    7.478218e+06    5.340124e+06    2.783149e+06   -7.373668e+05   -7.490353e+05 
   4.587021e+02    8.838197e+02    1.242363e+03    1.512046e+03    1.512049e+03    1.246345e+03    8.900029e+02    4.638489e+02    0.000000e+00    0.000000e+00 
   0.000000e+00    0.000000e+00    0.000000e+00    0.000000e+00    0.000000e+00    0.000000e+00    0.000000e+00    0.000000e+00    0.000000e+00    0.000000e+00 
1 2
2 3
3 4
4 5
5 6
6 7
7 8
8 9
10 1
11 9
ZONE T="Time=0.3998", STRANDID=1, SOLUTIONTIME=3.997623e-01, NODES=11, ELEMENTS=10, ZONETYPE=FELINESEG, DATAPACKING=BLOCK, VARLOCATION=([10,11,12]=CELLCENTERED)
   0.000000e+00    5.000000e-01    1.000000e+00    1.500000e+00    2.000000e+00    2.500000e+00    3.000000e+00    3.500000e+00    4.000000e+00    0.000000e+00    4.000000e+00 
   2.000000e+00    2.000000e+00    2.000000e+00    2.000000e+00    2.000000e+00    2.000000e+00    2.000000e+00    2.000000e+00    2.000000e+00    0.000000e+00    0.000000e+00 
   0.000000e+00    0.000000e+00    0.000000e+00    0.000000e+00    0.000000e+00    0.000000e+00    0.000000e+00    0.000000e+00    0.000000e+00    0.000000e+00    0.000000e+00 
   0.000000e+00    0.000000e+00    0.000000e+00    0.000000e+00    0.000000e+00    0.000000e+00    0.000000e+00    0.000000e+00    0.000000e+00    0.000000e+00    0.000000e+00 
   6.456855e-06    4.455052e-04    8.246580e-04    1.087644e-03    1.185065e-03    1.088363e-03    8.257117e-04    4.463054e-04    6.538125e-06    0.000000e+00    0.000000e+00 
   0.000000e+00    0.000000e+00    0.000000e+00    0.000000e+00    0.000000e+00    0.000000e+00    0.000000e+00    0.000000e+00    0.000000e+00    0.000000e+00    0.000000e+00 
   0.000000e+00    0.000000e+00    0.000000e+00    0.000000e+00    0.000000e+00    0.000000e+00    0.000000e+00    0.000000e+00    0.000000e+00    0.000000e+00    0.000000e+00 
   0.000000e+00    0.000000e+00    0.000000e+00    0.000000e+00    0.000000e+00    0.000000e+00    0.000000e+00    0.000000e+00    0.000000e+00    0.000000e+00    0.000000e+00 
   8.983133e-04    8.377985e-04    6.599439e-04    3.754551e-04    7.878646e-07   -3.742940e-04   -6.598420e-04   -8.388784e-04   -8.999303e-04    0.000000e+00    0.000000e+00 
   2.415131e+06    4.689143e+06    6.682445e+06    8.299523e+06    8.299529e+06    6.699032e+06    4.714926e+06    2.436607e+06    6.456855e+05    6.538125e+05 
   4.025137e+02    7.815082e+02    1.113719e+03    1.383226e+03    1.383227e+03    1.116483e+03    7.858053e+02    4.060931e+02    0.000000e+00    0.000000e+00 
   0.000000e+00    0.000000e+00    0.000000e+00    0.000000e+00    0.000000e+00    0.000000e+00    0.000000e+00    0.000000e+00    0.000000e+00    0.000000e+00 
1 2
2 3
3 4
4 5
5 6
6 7
7 8
8 9
10 1
11 9
ZONE T="Time=0.4498", STRANDID=1, SOLUTIONTIME=4.497623e-01, NODES=11, ELEMENTS=10, ZONETYPE=FELINESEG, DATAPACKING=BLOCK, VARLOCATION=([10,11,12]=CELLCENTERED)
   0.000000e+00    5.000000e-01    1.000000e+00    1.500000e+00    2.000000e+00    2.500000e+00    3.000000e+00    3.500000e+00    4.000000e+00    0.000000e+00    4.000000e+00 
   2.000000e+00    2.000000e+00    2.000000e+00    2.000000e+00    2.000000e+00    2.000000e+00    2.000000e+00    2.000000e+00    2.000000e+00    0.000000e+00    0.000000e+00 
   0.000000e+00    0.000000e+00    0.000000e+00    0.000000e+00    0.000000e+00    0.000000e+00    0.000000e+00    0.000000e+00    0.000000e+00    0.000000e+00    0.000000e+00 
   0.000000e+00    0.000000e+00    0.000000e+00    0.000000e+00    0.000000e+00    0.000000e+00    0.000000e+00    0.000000e+00    0.000000e+00    0.000000e+00    0.000000e+00 
  -7.284906e-06   -4.982313e-04   -9.217178e-04   -1.214798e-03   -1.323070e-03   -1.215697e-03   -9.230356e-04   -4.992320e-04   -7.386443e-06    0.000000e+00    0.000000e+00 
   0.000000e+00    0.000000e+00    0.000000e+00    0.000000e+00    0.000000e+00    0.000000e+00    0.000000e+00    0.000000e+00    0.000000e+00    0.000000e+00    0.000000e+00 
   0.000000e+00    0.000000e+00    0.000000e+00    0.000000e+00    0.000000e+00    0.000000e+00    0.000000e+00    0.000000e+00    0.000000e+00    0.000000e+00    0.000000e+00 
   0.000000e+00    0.000000e+00    0.000000e+00    0.000000e+00    0.000000e+00    0.000000e+00    0.000000e+00    0.000000e+00    0.000000e+00    0.000000e+00    0.000000e+00 
  -1.004693e-03   -9.364611e-04   -7.363636e-04   -4.177245e-04   -9.855277e-07    4.162722e-04    7.362364e-04    9.378119e-04    1.006715e-03    0.000000e+00    0.000000e+00 
   2.722470e+06    5.269116e+06    7.466627e+06    9.197169e+06    9.197180e+06    7.487383e+06    5.301365e+06    2.749323e+06   -7.284906e+05   -7.386443e+05 
   4.537359e+02    8.781685e+02    1.244413e+03    1.532831e+03    1.532833e+03    1.247872e+03    8.835432e+02    4.582113e+02    0.000000e+00    0.000000e+00 
   0.000000e+00    0.000000e+00    0.000000e+00    0.000000e+00    0.000000e+00    0.000000e+00    0.000000e+00    0.000000e+00    0.000000e+00    0.000000e+00 
1 2
2 3
3 4
4 5
5 6
6 7
7 8
8 9
10 1
11 9
ZONE T="Time=0.4998", STRANDID=1, SOLUTIONTIME=4.997623e-01, NODES=11, ELEMENTS=10, ZONETYPE=FELINESEG, DATAPACKING=BLOCK, VARLOCATION=([10,11,12]=CELLCENTERED)
   0.000000e+00    5.000000e-01    1.000000e+00    1.500000e+00    2.000000e+00    2.500000e+00    3.000000e+00    3.500000e+00    4.000000e+00    0.000000e+00    4.000000e+00 
   2.000000e+00    2.000000e+00    2.000000e+00    2.000000e+00    2.000000e+00    2.000000e+00    2.000000e+00    2.000000e+00    2.000000e+00    0.000000e+00    0.000000e+00 
   0.000000e+00    0.000000e+00    0.000000e+00    0.000000e+00    0.000000e+00    0.000000e+00    0.000000e+00    0.000000e+00    0.000000e+00    0.000000e+00    0.000000e+00 
   0.000000e+00    0.000000e+00    0.000000e+00    0.000000e+00    0.000000e+00    0.000000e+00    0.000000e+00    0.000000e+00    0.000000e+00    0.000000e+00    0.000000e+00 
   8.485630e-06    5.725755e-04    1.058292e-03    1.393269e-03    1.516488e-03    1.394472e-03    1.060055e-03    5.739137e-04    8.621255e-06    0.000000e+00    0.000000e+00 
   0.000000e+00    0.000000e+00    0.000000e+00    0.000000e+00    0.000000e+00    0.000000e+00    0.000000e+00    0.000000e+00    0.000000e+00    0.000000e+00    0.000000e+00 
   0.000000e+00    0.000000e+00    0.000000e+00    0.000000e+00    0.000000e+00    0.000000e+00    0.000000e+00    0.000000e+00    0.000000e+00    0.000000e+00    0.000000e+00 
   0.000000e+00    0.000000e+00    0.000000e+00    0.000000e+00    0.000000e+00    0.000000e+00    0.000000e+00    0.000000e+00    0.000000e+00    0.000000e+00    0.000000e+00 
   1.154722e-03    1.075320e-03    8.432403e-04    4.761984e-04    1.318246e-06   -4.742561e-04   -8.430705e-04   -1.077127e-03   -1.157427e-03    0.000000e+00    0.000000e+00 
   3.166991e+06    6.099881e+06    8.568863e+06    1.041887e+07    1.041889e+07    8.596637e+06    6.143011e+06    3.202890e+06    8.485630e+05    8.621255e+05 
   5.278212e+02    1.016626e+03    1.428115e+03    1.736443e+03    1.736447e+03    1.432744e+03    1.023815e+03    5.338043e+02    0.000000e+00    0.000000e+00 
   0.000000e+00    0.000000e+00    0.000000e+00    0.000000e+00    0.000000e+00    0.000000e+00    0.000000e+00    0.000000e+00    0.000000e+00    0.000000e+00 
1 2
2 3
3 4
4 5
5 6
6 7
7 8
8 9
10 1
11 9
ZONE T="Time=0.5498", STRANDID=1, SOLUTIONTIME=5.497623e-01, NODES=11, ELEMENTS=10, ZONETYPE=FELINESEG, DATAPACKING=BLOCK, VARLOCATION=([10,11,12]=CELLCENTERED)
   0.000000e+00    5.000000e-01    1.000000e+00    1.500000e+00    2.000000e+00    2.500000e+00    3.000000e+00    3.500000e+00    4.000000e+00    0.000000e+00    4.000000e+00 
   2.000000e+00    2.000000e+00    2.000000e+00    2.000000e+00    2.000000e+00    2.000000e+00    2.000000e+00    2.000000e+00    2.000000e+00    0.000000e+00    0.000000e+00 
   0.000000e+00    0.000000e+00    0.000000e+00    0.000000e+00    0.000000e+00    0.000000e+00    0.000000e+00    0.000000e+00    0.000000e+00    0.000000e+00    0.000000e+00 
   0.000000e+00    0.000000e+00    0.000000e+00    0.000000e+00    0.000000e+00    0.000000e+00    0.000000e+00    0.000000e+00    0.000000e+00    0.000000e+00    0.000000e+00 
  -8.450936e-06   -5.705357e-04   -1.054560e-03   -1.388416e-03   -1.511244e-03   -1.389608e-03   -1.056307e-03   -5.718620e-04   -8.585352e-06    0.000000e+00    0.000000e+00 
   0.000000e+00    0.000000e+00    0.000000e+00    0.000000e+00    0.000000e+00    0.000000e+00    0.000000e+00    0.000000e+00    0.000000e+00    0.000000e+00    0.000000e+00 
   0.000000e+00    0.000000e+00    0.000000e+00    0.000000e+00    0.000000e+00    0.000000e+00    0.000000e+00    0.000000e+00    0.000000e+00    0.000000e+00    0.000000e+00 
   0.000000e+00    0.000000e+00    0.000000e+00    0.000000e+00    0.000000e+00    0.000000e+00    0.000000e+00    0.000000e+00    0.000000e+00    0.000000e+00    0.000000e+00 
  -1.150604e-03   -1.071524e-03   -8.403546e-04   -4.746547e-04   -1.306476e-06    4.727296e-04    8.401864e-04    1.073315e-03    1.153285e-03    0.000000e+00    0.000000e+00 
   3.154202e+06    6.076388e+06    8.538794e+06    1.038772e+07    1.038774e+07    8.566320e+06    6.119134e+06    3.189781e+06   -8.450936e+05   -8.585352e+05 
   5.256898e+02    1.012711e+03    1.423104e+03    1.731252e+03    1.731255e+03    1.427691e+03    1.019835e+03    5.316195e+02    0.000000e+00    0.000000e+00 
   0.000000e+00    0.000000e+00    0.000000e+00    0.000000e+00    0.000000e+00    0.000000e+00    0.000000e+00    0.000000e+00    0.000000e+00    0.000000e+00 
1 2
2 3
3 4
4 5
5 6
6 7
7 8
8 9
10 1
11 9
ZONE T="Time=0.5998", STRANDID=1, SOLUTIONTIME=5.997623e-01, NODES=11, ELEMENTS=10, ZONETYPE=FELINESEG, DATAPACKING=BLOCK, VARLOCATION=([10,11,12]=CELLCENTERED)
   0.000000e+00    5.000000e-01    1.000000e+00    1.500000e+00    2.000000e+00    2.500000e+00    3.000000e+00    3.500000e+00    4.000000e+00    0.000000e+00    4.000000e+00 
   2.000000e+00    2.000000e+00    2.000000e+00    2.000000e+00    2.000000e+00    2.000000e+00    2.000000e+00    2.000000e+00    2.000000e+00    0.000000e+00    0.000000e+00 
   0.000000e+00    0.000000e+00    0.000000e+00    0.000000e+00    0.000000e+00    0.000000e+00    0.000000e+00    0.000000e+00    0.000000e+00    0.000000e+00    0.000000e+00 
   0.000000e+00    0.000000e+00    0.000000e+00    0.000000e+00    0.000000e+00    0.000000e+00    0.000000e+00    0.000000e+00    0.000000e+00    0.000000e+00    0.000000e+00 
   7.520350e-06    5.127973e-04    9.484750e-04    1.249762e-03    1.360961e-03    1.250721e-03    9.498811e-04    5.138650e-04    7.628641e-06    0.000000e+00    0.000000e+00 
   0.000000e+00    0.000000e+00    0.000000e+00    0.000000e+00    0.000000e+00    0.000000e+00    0.000000e+00    0.000000e+00    0.000000e+00    0.000000e+00    0.000000e+00 
   0.000000e+00    0.000000e+00    0.000000e+00    0.000000e+00    0.000000e+00    0.000000e+00    0.000000e+00    0.000000e+00    0.000000e+00    0.000000e+00    0.000000e+00 
   0.000000e+00    0.000000e+00    0.000000e+00    0.000000e+00    0.000000e+00    0.000000e+00    0.000000e+00    0.000000e+00    0.000000e+00    0.000000e+00    0.000000e+00 
   1.034088e-03    9.636659e-04    7.572998e-04    4.291777e-04    1.051604e-06   -4.276281e-04   -7.571642e-04   -9.651072e-04   -1.036246e-03    0.000000e+00    0.000000e+00 
   2.809618e+06    5.431923e+06    7.682535e+06    9.436418e+06    9.436431e+06    7.704685e+06    5.466332e+06    2.838266e+06    7.520350e+05    7.628641e+05 
   4.682603e+02    9.053024e+02    1.280397e+03    1.572705e+03    1.572707e+03    1.284089e+03    9.110371e+02    4.730349e+02    0.000000e+00    0.000000e+00 
   0.000000e+00    0.000000e+00    0.000000e+00    0.000000e+00    0.000000e+00    0.000000e+00    0.000000e+00    0.000000e+00    0.000000e+00    0.000000e+00 
1 2
2 3
3 4
4 5
5 6
6 7
7 8
8 9
10 1
11 9
ZONE T="Time=0.6498", STRANDID=1, SOLUTIONTIME=6.497623e-01, NODES=11, ELEMENTS=10, ZONETYPE=FELINESEG, DATAPACKING=BLOCK, VARLOCATION=([10,11,12]=CELLCENTERED)
   0.000000e+00    5.000000e-01    1.000000e+00    1.500000e+00    2.000000e+00    2.500000e+00    3.000000e+00    3.500000e+00    4.000000e+00    0.000000e+00    4.000000e+00 
   2.000000e+00    2.000000e+00    2.000000e+00    2.000000e+00    2.000000e+00    2.000000e+00    2.000000e+00    2.000000e+00    2.000000e+00    0.000000e+00    0.000000e+00 
   0.000000e+00    0.000000e+00    0.000000e+00    0.000000e+00    0.000000e+00    0.000000e+00    0.000000e+00    0.000000e+00    0.000000e+00    0.000000e+00    0.000000e+00 
   0.000000e+00    0.000000e+00    0.000000e+00    0.000000e+00    0.000000e+00    0.000000e+00    0.000000e+00    0.000000e+00    0.000000e+00    0.000000e+00    0.000000e+00 
  -6.890788e-06   -4.723070e-04   -8.738861e-04   -1.151961e-03   -1.254761e-03   -1.152792e-03   -8.751036e-04   -4.732315e-04   -6.984597e-06    0.000000e+00    0.000000e+00 
   0.000000e+00    0.000000e+00    0.000000e+00    0.000000e+00    0.000000e+00    0.000000e+00    0.000000e+00    0.000000e+00    0.000000e+00    0.000000e+00    0.000000e+00 
   0.000000e+00    0.000000e+00    0.000000e+00    0.000000e+00    0.000000e+00    0.000000e+00    0.000000e+00    0.000000e+00    0.000000e+00    0.000000e+00    0.000000e+00 
   0.000000e+00    0.000000e+00    0.000000e+00    0.000000e+00    0.000000e+00    0.000000e+00    0.000000e+00    0.000000e+00    0.000000e+00    0.000000e+00    0.000000e+00 
  -9.524012e-04   -8.878508e-04   -6.984481e-04   -3.965047e-04   -9.104823e-07    3.951630e-04    6.983306e-04    8.890987e-04    9.542696e-04    0.000000e+00    0.000000e+00 
   2.575727e+06    4.988998e+06    7.079655e+06    8.738779e+06    8.738789e+06    7.098829e+06    5.018791e+06    2.600535e+06   -6.890788e+05   -6.984597e+05 
   4.292792e+02    8.314830e+02    1.179919e+03    1.456434e+03    1.456436e+03    1.183115e+03    8.364484e+02    4.334138e+02    0.000000e+00    0.000000e+00 
   0.000000e+00    0.000000e+00    0.000000e+00    0.000000e+00    0.000000e+00    0.000000e+00    0.000000e+00    0.000000e+00    0.000000e+00    0.000000e+00 
1 2
2 3
3 4
4 5
5 6
6 7
7 8
8 9
10 1
11 9
ZONE T="Time=0.6998", STRANDID=1, SOLUTIONTIME=6.997623e-01, NODES=11, ELEMENTS=10, ZONETYPE=FELINESEG, DATAPACKING=BLOCK, VARLOCATION=([10,11,12]=CELLCENTERED)