TITLE = "FEM Line Output"
VARIABLES = "X", "Y", "Z", "U", "V", "W", "RX", "RY", "RZ", "Stress", "Moment", "Torsion"
ZONE T="Time=0.0000", STRANDID=1, SOLUTIONTIME=0.000000e+00, NODES=11, ELEMENTS=10, ZONETYPE=FELINESEG, DATAPACKING=BLOCK, VARLOCATION=([10,11,12]=CELLCENTERED)
   0.000000e+00    5.000000e-01    1.000000e+00    1.500000e+00    2.000000e+00    2.500000e+00    3.000000e+00    3.500000e+00    4.000000e+00    0.000000e+00    4.000000e+00 
   2.000000e+00    2.000000e+00    2.000000e+00    2.000000e+00    2.000000e+00    2.000000e+00    2.000000e+00    2.000000e+00    2.000000e+00    0.000000e+00    0.000000e+00 
   0.000000e+00    0.000000e+00    0.000000e+00    0.000000e+00    0.000000e+00    0.000000e+00    0.000000e+00    0.000000e+00    0.000000e+00    0.000000e+00    0.000000e+00 
   0.000000e+00    0.000000e+00    0.000000e+00    0.000000e+00    0.000000e+00    0.000000e+00    0.000000e+00    0.000000e+00    0.000000e+00    0.000000e+00    0.000000e+00 
  -3.977725e-06   -2.977395e-04   -5.539997e-04   -7.352570e-04   -8.040097e-04   -7.352570e-04   -5.539997e-04   -2.977395e-04   -3.977725e-06    0.000000e+00    0.000000e+00 
   0.000000e+00    0.000000e+00    0.000000e+00    0.000000e+00    0.000000e+00    0.000000e+00    0.000000e+00    0.000000e+00    0.000000e+00    0.000000e+00    0.000000e+00 
   0.000000e+00    0.000000e+00    0.000000e+00    0.000000e+00    0.000000e+00    0.000000e+00    0.000000e+00    0.000000e+00    0.000000e+00    0.000000e+00    0.000000e+00 
   0.000000e+00    0.000000e+00    0.000000e+00    0.000000e+00    0.000000e+00    0.000000e+00    0.000000e+00    0.000000e+00    0.000000e+00    0.000000e+00    0.000000e+00 
  -6.000240e-04   -5.625225e-04   -4.500180e-04   -2.625105e-04   -8.622455e-19    2.625105e-04    4.500180e-04    5.625225e-04    6.000240e-04    0.000000e+00    0.000000e+00 
   1.500030e+06    3.000060e+06    4.500090e+06    6.000120e+06    6.000120e+06    4.500090e+06    3.000060e+06    1.500030e+06   -3.977725e+05   -3.977725e+05 
   2.500000e+02    5.000000e+02    7.500000e+02    1.000000e+03    1.000000e+03    7.500000e+02    5.000000e+02    2.500000e+02    0.000000e+00    0.000000e+00 
   0.000000e+00    0.000000e+00    0.000000e+00    0.000000e+00    0.000000e+00    0.000000e+00    0.000000e+00    0.000000e+00    0.000000e+00    0.000000e+00 
1 2
2 3
3 4
4 5
5 6
6 7
7 8
8 9
10 1
11 9
