TITLE = "FEM Line Output"
VARIABLES = "X", "Y", "Z", "U", "V", "W", "RX", "RY", "RZ", "Stress", "Moment", "Torsion"
ZONE T="Time=0.0000", STRANDID=1, SOLUTIONTIME=0.000000e+00, NODES=126, ELEMENTS=209, ZONETYPE=FELINESEG, DATAPACKING=BLOCK, VARLOCATION=([10,11,12]=CELLCENTERED)
   0.000000e+00    0.000000e+00    0.000000e+00    0.000000e+00    0.000000e+00    0.000000e+00    6.666670e-01    6.666670e-01    1.333330e+00    1.333330e+00    2.000000e+00    2.000000e+00    2.000000e+00    2.000000e+00    2.000000e+00    2.000000e+00    2.666670e+00    2.666670e+00    3.333330e+00    3.333330e+00    4.000000e+00    4.000000e+00    4.000000e+00    4.000000e+00    4.000000e+00    4.000000e+00    4.666670e+00    4.666670e+00    5.333330e+00    5.333330e+00    6.000000e+00    6.000000e+00    6.000000e+00    6.000000e+00    6.000000e+00    6.000000e+00    6.666670e+00    6.666670e+00    7.333330e+00    7.333330e+00    8.000000e+00    8.000000e+00    8.000000e+00    8.000000e+00    8.000000e+00    8.000000e+00    8.666670e+00    8.666670e+00    9.333330e+00    9.333330e+00    1.000000e+01    1.000000e+01    1.000000e+01    1.000000e+01    1.000000e+01    1.000000e+01    1.066670e+01    1.066670e+01    1.133330e+01    1.133330e+01    1.200000e+01    1.200000e+01    1.200000e+01    1.200000e+01    1.200000e+01    1.200000e+01    1.266670e+01    1.266670e+01    1.333330e+01    1.333330e+01    1.400000e+01    1.400000e+01    1.400000e+01    1.400000e+01    1.400000e+01    1.400000e+01    1.466670e+01    1.466670e+01    1.533330e+01    1.533330e+01    1.600000e+01    1.600000e+01    1.600000e+01    1.600000e+01    1.600000e+01    1.600000e+01    1.666670e+01    1.666670e+01    1.733330e+01    1.733330e+01    1.800000e+01    1.800000e+01    1.800000e+01    1.800000e+01    1.800000e+01    1.800000e+01    1.866670e+01    1.866670e+01    1.933330e+01    1.933330e+01    2.000000e+01    2.000000e+01    2.000000e+01    2.000000e+01    2.000000e+01    2.000000e+01    2.066670e+01    2.066670e+01    2.133330e+01    2.133330e+01    2.200000e+01    2.200000e+01    2.200000e+01    2.200000e+01    2.200000e+01    2.200000e+01    2.266670e+01    2.266670e+01    2.333330e+01    2.333330e+01    2.400000e+01    2.400000e+01    2.400000e+01    2.400000e+01    2.400000e+01    2.400000e+01 
   0.000000e+00    0.000000e+00    0.000000e+00    0.000000e+00    3.000000e+00    3.000000e+00    0.000000e+00    0.000000e+00    0.000000e+00    0.000000e+00    0.000000e+00    0.000000e+00    0.000000e+00    0.000000e+00    3.000000e+00    3.000000e+00    0.000000e+00    0.000000e+00    0.000000e+00    0.000000e+00    0.000000e+00    0.000000e+00    0.000000e+00    0.000000e+00    3.000000e+00    3.000000e+00    0.000000e+00    0.000000e+00    0.000000e+00    0.000000e+00    0.000000e+00    0.000000e+00    0.000000e+00    0.000000e+00    3.000000e+00    3.000000e+00    0.000000e+00    0.000000e+00    0.000000e+00    0.000000e+00    0.000000e+00    0.000000e+00    0.000000e+00    0.000000e+00    3.000000e+00    3.000000e+00    0.000000e+00    0.000000e+00    0.000000e+00    0.000000e+00    0.000000e+00    0.000000e+00    0.000000e+00    0.000000e+00    3.000000e+00    3.000000e+00    0.000000e+00    0.000000e+00    0.000000e+00    0.000000e+00    0.000000e+00    0.000000e+00    0.000000e+00    0.000000e+00    3.000000e+00    3.000000e+00    0.000000e+00    0.000000e+00    0.000000e+00    0.000000e+00    0.000000e+00    0.000000e+00    0.000000e+00    0.000000e+00    3.000000e+00    3.000000e+00    0.000000e+00    0.000000e+00    0.000000e+00    0.000000e+00    0.000000e+00    0.000000e+00    0.000000e+00    0.000000e+00    3.000000e+00    3.000000e+00    0.000000e+00    0.000000e+00    0.000000e+00    0.000000e+00    0.000000e+00    0.000000e+00    0.000000e+00    0.000000e+00    3.000000e+00    3.000000e+00    0.000000e+00    0.000000e+00    0.000000e+00    0.000000e+00    0.000000e+00    0.000000e+00    0.000000e+00    0.000000e+00    3.000000e+00    3.000000e+00    0.000000e+00    0.000000e+00    0.000000e+00    0.000000e+00    0.000000e+00    0.000000e+00    0.000000e+00    0.000000e+00    3.000000e+00    3.000000e+00    0.000000e+00    0.000000e+00    0.000000e+00    0.000000e+00    0.000000e+00    0.000000e+00    0.000000e+00    0.000000e+00    3.000000e+00    3.000000e+00 
   0.000000e+00    1.000000e+00    2.000000e+00    3.000000e+00    0.000000e+00    3.000000e+00    0.000000e+00    3.000000e+00    0.000000e+00    3.000000e+00    0.000000e+00    1.000000e+00    2.000000e+00    3.000000e+00    0.000000e+00    3.000000e+00    0.000000e+00    3.000000e+00    0.000000e+00    3.000000e+00    0.000000e+00    1.000000e+00    2.000000e+00    3.000000e+00    0.000000e+00    3.000000e+00    0.000000e+00    3.000000e+00    0.000000e+00    3.000000e+00    0.000000e+00    1.000000e+00    2.000000e+00    3.000000e+00    0.000000e+00    3.000000e+00    0.000000e+00    3.000000e+00    0.000000e+00    3.000000e+00    0.000000e+00    1.000000e+00    2.000000e+00    3.000000e+00    0.000000e+00    3.000000e+00    0.000000e+00    3.000000e+00    0.000000e+00    3.000000e+00    0.000000e+00    1.000000e+00    2.000000e+00    3.000000e+00    0.000000e+00    3.000000e+00    0.000000e+00    3.000000e+00    0.000000e+00    3.000000e+00    0.000000e+00    1.000000e+00    2.000000e+00    3.000000e+00    0.000000e+00    3.000000e+00    0.000000e+00    3.000000e+00    0.000000e+00    3.000000e+00    0.000000e+00    1.000000e+00    2.000000e+00    3.000000e+00    0.000000e+00    3.000000e+00    0.000000e+00    3.000000e+00    0.000000e+00    3.000000e+00    0.000000e+00    1.000000e+00    2.000000e+00    3.000000e+00    0.000000e+00    3.000000e+00    0.000000e+00    3.000000e+00    0.000000e+00    3.000000e+00    0.000000e+00    1.000000e+00    2.000000e+00    3.000000e+00    0.000000e+00    3.000000e+00    0.000000e+00    3.000000e+00    0.000000e+00    3.000000e+00    0.000000e+00    1.000000e+00    2.000000e+00    3.000000e+00    0.000000e+00    3.000000e+00    0.000000e+00    3.000000e+00    0.000000e+00    3.000000e+00    0.000000e+00    1.000000e+00    2.000000e+00    3.000000e+00    0.000000e+00    3.000000e+00    0.000000e+00    3.000000e+00    0.000000e+00    3.000000e+00    0.000000e+00    1.000000e+00    2.000000e+00    3.000000e+00    0.000000e+00    3.000000e+00 
   0.000000e+00    0.000000e+00    0.000000e+00    0.000000e+00    7.904716e-03    7.904716e-03    1.195046e-05    1.195046e-05    2.390085e-05    2.390085e-05    3.585136e-05    3.585136e-05    3.585136e-05    3.585136e-05    7.665197e-03    7.665197e-03    7.047978e-05    7.047978e-05    1.051077e-04    1.051077e-04    1.397361e-04    1.397361e-04    1.397361e-04    1.397361e-04    6.927333e-03    6.927333e-03    1.932785e-04    1.932785e-04    2.468200e-04    2.468200e-04    3.003624e-04    3.003624e-04    3.003624e-04    3.003624e-04    5.788779e-03    5.788779e-03    3.680151e-04    3.680151e-04    4.356667e-04    4.356667e-04    5.033193e-04    5.033193e-04    5.033193e-04    5.033193e-04    4.351900e-03    4.351900e-03    5.803906e-04    5.803906e-04    6.574607e-04    6.574607e-04    7.345320e-04    7.345320e-04    7.345320e-04    7.345320e-04    2.715681e-03    2.715681e-03    8.163144e-04    8.163144e-04    8.980846e-04    8.980846e-04    9.798670e-04    9.798670e-04    9.798670e-04    9.798670e-04    9.798671e-04    9.798671e-04    1.061649e-03    1.061649e-03    1.143420e-03    1.143420e-03    1.225202e-03    1.225202e-03    1.225202e-03    1.225202e-03   -7.559469e-04   -7.559469e-04    1.302277e-03    1.302277e-03    1.379340e-03    1.379340e-03    1.456415e-03    1.456415e-03    1.456415e-03    1.456415e-03   -2.392166e-03   -2.392166e-03    1.524070e-03    1.524070e-03    1.591716e-03    1.591716e-03    1.659372e-03    1.659372e-03    1.659372e-03    1.659372e-03   -3.829045e-03   -3.829045e-03    1.712916e-03    1.712916e-03    1.766453e-03    1.766453e-03    1.819998e-03    1.819998e-03    1.819998e-03    1.819998e-03   -4.967599e-03   -4.967599e-03    1.854628e-03    1.854628e-03    1.889253e-03    1.889253e-03    1.923883e-03    1.923883e-03    1.923883e-03    1.923883e-03   -5.705463e-03   -5.705463e-03    1.935834e-03    1.935834e-03    1.947783e-03    1.947783e-03    1.959734e-03    1.959734e-03    1.959734e-03    1.959734e-03   -5.944982e-03   -5.944982e-03 
   0.000000e+00    0.000000e+00    0.000000e+00    0.000000e+00   -7.103576e-05   -7.103576e-05   -1.243188e-03   -1.243188e-03   -3.737767e-03   -3.737767e-03   -6.298000e-03   -8.269639e-03   -8.269639e-03   -6.298000e-03   -6.269667e-03   -6.269667e-03   -8.647500e-03   -8.647500e-03   -1.051480e-02   -1.051480e-02   -1.205488e-02   -1.441530e-02   -1.441530e-02   -1.205488e-02   -1.200658e-02   -1.200658e-02   -1.387188e-02   -1.387188e-02   -1.551091e-02   -1.551091e-02   -1.687172e-02   -1.933484e-02   -1.933484e-02   -1.687172e-02   -1.681219e-02   -1.681219e-02   -1.837382e-02   -1.837382e-02   -1.959480e-02   -1.959480e-02   -2.050488e-02   -2.299509e-02   -2.299509e-02   -2.050488e-02   -2.043603e-02   -2.043603e-02   -2.155664e-02   -2.155664e-02   -2.231679e-02   -2.231679e-02   -2.276006e-02   -2.525731e-02   -2.525731e-02   -2.276006e-02   -2.268587e-02   -2.268587e-02   -2.332803e-02   -2.332803e-02   -2.358527e-02   -2.358527e-02   -2.352450e-02   -2.602314e-02   -2.602314e-02   -2.352450e-02   -2.344849e-02   -2.344849e-02   -2.358527e-02   -2.358527e-02   -2.332803e-02   -2.332803e-02   -2.276006e-02   -2.525731e-02   -2.525731e-02   -2.276006e-02   -2.268587e-02   -2.268587e-02   -2.231678e-02   -2.231678e-02   -2.155669e-02   -2.155669e-02   -2.050488e-02   -2.299509e-02   -2.299509e-02   -2.050488e-02   -2.043603e-02   -2.043603e-02   -1.959476e-02   -1.959476e-02   -1.837389e-02   -1.837389e-02   -1.687172e-02   -1.933484e-02   -1.933484e-02   -1.687172e-02   -1.681219e-02   -1.681219e-02   -1.551085e-02   -1.551085e-02   -1.387197e-02   -1.387197e-02   -1.205488e-02   -1.441530e-02   -1.441530e-02   -1.205488e-02   -1.200658e-02   -1.200658e-02   -1.051473e-02   -1.051473e-02   -8.647604e-03   -8.647604e-03   -6.298000e-03   -8.269639e-03   -8.269639e-03   -6.298000e-03   -6.269667e-03   -6.269667e-03   -3.737655e-03   -3.737655e-03   -1.243301e-03   -1.243301e-03    0.000000e+00    0.000000e+00    0.000000e+00    0.000000e+00   -7.103577e-05   -7.103577e-05 
   0.000000e+00    0.000000e+00    0.000000e+00    0.000000e+00    0.000000e+00    0.000000e+00   -3.413334e-18   -3.413524e-18   -1.100446e-17   -1.100485e-17   -1.880028e-17   -1.880030e-17   -1.880031e-17   -1.880032e-17    6.622375e-03   -6.622375e-03   -2.767339e-17   -2.767569e-17   -3.849889e-17   -3.850401e-17   -4.730782e-17   -4.730783e-17   -4.730784e-17   -4.730785e-17    8.371867e-03   -8.371867e-03   -5.583051e-17   -5.582922e-17   -6.579986e-17   -6.580514e-17   -7.325074e-17   -7.325072e-17   -7.325069e-17   -7.325067e-17    8.834010e-03   -8.834010e-03   -8.004342e-17   -8.004490e-17   -8.805775e-17   -8.807265e-17   -9.335779e-17   -9.335769e-17   -9.335758e-17   -9.335747e-17    8.955953e-03   -8.955953e-03   -9.782243e-17   -9.779395e-17   -1.033051e-16   -1.032772e-16   -1.058315e-16   -1.058314e-16   -1.058314e-16   -1.058313e-16    8.987614e-03   -8.987614e-03   -1.073574e-16   -1.073793e-16   -1.098468e-16   -1.098639e-16   -1.093392e-16   -1.093394e-16   -1.093396e-16   -1.093398e-16    8.993885e-03   -8.993885e-03   -1.077118e-16   -1.077321e-16   -1.068904e-16   -1.069419e-16   -1.029863e-16   -1.029863e-16   -1.029862e-16   -1.029862e-16    8.987614e-03   -8.987614e-03   -9.797466e-17   -9.793947e-17   -9.387268e-17   -9.388526e-17   -8.685248e-17   -8.685249e-17   -8.685249e-17   -8.685249e-17    8.955953e-03   -8.955953e-03   -7.897300e-17   -7.894904e-17   -7.229431e-17   -7.230685e-17   -6.298867e-17   -6.298888e-17   -6.298909e-17   -6.298930e-17    8.834010e-03   -8.834010e-03   -5.322019e-17   -5.322161e-17   -4.512874e-17   -4.517910e-17   -3.484937e-17   -3.484944e-17   -3.484950e-17   -3.484957e-17    8.371867e-03   -8.371867e-03   -2.469331e-17   -2.467452e-17   -1.698250e-17   -1.704380e-17   -7.868336e-18   -7.868212e-18   -7.868088e-18   -7.867964e-18    6.622375e-03   -6.622375e-03   -8.962531e-19   -8.013856e-19    4.260556e-19    4.734516e-19    0.000000e+00    0.000000e+00    0.000000e+00    0.000000e+00    0.000000e+00    0.000000e+00 
   0.000000e+00    0.000000e+00    0.000000e+00    0.000000e+00    0.000000e+00    0.000000e+00    7.358198e-04   -7.358198e-04    1.471635e-03   -1.471635e-03    2.207458e-03    1.235820e-03   -1.235820e-03   -2.207458e-03    2.207458e-03   -2.207458e-03    2.401847e-03   -2.401847e-03    2.596233e-03   -2.596233e-03    2.790622e-03    1.430208e-03   -1.430208e-03   -2.790622e-03    2.790622e-03   -2.790622e-03    2.841972e-03   -2.841972e-03    2.893320e-03   -2.893320e-03    2.944670e-03    1.481557e-03   -1.481557e-03   -2.944670e-03    2.944670e-03   -2.944670e-03    2.958219e-03   -2.958219e-03    2.971768e-03   -2.971768e-03    2.985318e-03    1.495106e-03   -1.495106e-03   -2.985318e-03    2.985318e-03   -2.985318e-03    2.988836e-03   -2.988836e-03    2.992353e-03   -2.992353e-03    2.995871e-03    1.498624e-03   -1.498624e-03   -2.995871e-03    2.995871e-03   -2.995871e-03    2.996568e-03   -2.996568e-03    2.997265e-03   -2.997265e-03    2.997962e-03    1.499321e-03   -1.499321e-03   -2.997962e-03    2.997962e-03   -2.997962e-03    2.997265e-03   -2.997265e-03    2.996568e-03   -2.996568e-03    2.995871e-03    1.498624e-03   -1.498624e-03   -2.995871e-03    2.995871e-03   -2.995871e-03    2.992353e-03   -2.992353e-03    2.988836e-03   -2.988836e-03    2.985318e-03    1.495106e-03   -1.495106e-03   -2.985318e-03    2.985318e-03   -2.985318e-03    2.971768e-03   -2.971768e-03    2.958220e-03   -2.958220e-03    2.944670e-03    1.481557e-03   -1.481557e-03   -2.944670e-03    2.944670e-03   -2.944670e-03    2.893318e-03   -2.893318e-03    2.841974e-03   -2.841974e-03    2.790622e-03    1.430208e-03   -1.430208e-03   -2.790622e-03    2.790622e-03   -2.790622e-03    2.596224e-03   -2.596224e-03    2.401856e-03   -2.401856e-03    2.207458e-03    1.235820e-03   -1.235820e-03   -2.207458e-03    2.207458e-03   -2.207458e-03    1.471602e-03   -1.471602e-03    7.358562e-04   -7.358562e-04    0.000000e+00    0.000000e+00    0.000000e+00    0.000000e+00    0.000000e+00    0.000000e+00 
   0.000000e+00    0.000000e+00    0.000000e+00    0.000000e+00    0.000000e+00    0.000000e+00    9.246689e-18    9.247118e-18    1.253352e-17    1.253354e-17    9.860511e-18   -4.717798e-18   -4.724133e-18    9.859291e-18    9.860511e-18    9.859291e-18    1.576633e-17    1.577225e-17    1.571820e-17    1.571861e-17    9.716118e-18   -7.560639e-18   -7.540370e-18    9.698351e-18    9.716118e-18    9.698351e-18    1.486044e-17    1.486932e-17    1.405659e-17    1.406245e-17    7.304548e-18   -1.052003e-17   -1.052003e-17    7.277712e-18    7.304548e-18    7.277712e-18    1.208934e-17    1.211069e-17    1.096987e-17    1.097865e-17    3.946129e-18   -1.414491e-17   -1.416604e-17    3.881560e-18    3.946129e-18    3.881560e-18    8.454090e-18    8.433800e-18    7.000472e-18    7.022040e-18   -4.147674e-19   -1.856715e-17   -1.860769e-17   -3.537612e-19   -4.147674e-19   -3.537612e-19    4.001821e-18    4.011026e-18    2.476931e-18    2.457174e-18   -4.989895e-18   -2.359406e-17   -2.383730e-17   -5.015786e-18   -4.989895e-18   -5.015786e-18   -8.644438e-19   -8.027956e-19   -2.571729e-18   -2.563572e-18   -1.011226e-17   -2.935069e-17   -2.955338e-17   -1.029864e-17   -1.011226e-17   -1.029864e-17   -5.878705e-18   -5.833375e-18   -7.384919e-18   -7.322710e-18   -1.463136e-17   -3.413436e-17   -3.413169e-17   -1.476710e-17   -1.463136e-17   -1.476710e-17   -9.962411e-18   -9.925788e-18   -1.103189e-17   -1.098623e-17   -1.784013e-17   -3.762077e-17   -3.794509e-17   -1.794873e-17   -1.784013e-17   -1.794873e-17   -1.242954e-17   -1.235542e-17   -1.281266e-17   -1.277674e-17   -1.898961e-17   -3.989099e-17   -3.940451e-17   -1.921283e-17   -1.898961e-17   -1.921283e-17   -1.243871e-17   -1.233267e-17   -1.165738e-17   -1.158334e-17   -1.664539e-17   -4.118826e-17   -4.135041e-17   -1.696464e-17   -1.664539e-17   -1.696464e-17   -5.245133e-18   -5.244875e-18    3.027767e-19    4.094407e-19    0.000000e+00    0.000000e+00    0.000000e+00    0.000000e+00    0.000000e+00    0.000000e+00 
   0.000000e+00    0.000000e+00    0.000000e+00    0.000000e+00   -3.952358e-03   -3.952358e-03   -3.210893e-03   -3.210893e-03   -3.976443e-03   -3.976443e-03   -3.629992e-03   -3.629992e-03   -3.629992e-03   -3.629992e-03   -1.999676e-03   -1.999676e-03   -3.234981e-03   -3.234981e-03   -2.405703e-03   -2.405703e-03   -2.475479e-03   -2.475479e-03   -2.475479e-03   -2.475479e-03   -2.156059e-03   -2.156059e-03   -2.728207e-03   -2.728207e-03   -2.163846e-03   -2.163846e-03   -2.115727e-03   -2.115727e-03   -2.115727e-03   -2.115727e-03   -1.686345e-03   -1.686345e-03   -2.160874e-03   -2.160874e-03   -1.494639e-03   -1.494639e-03   -1.450347e-03   -1.450347e-03   -1.450347e-03   -1.450347e-03   -1.199117e-03   -1.199117e-03   -1.476376e-03   -1.476376e-03   -7.977851e-04   -7.977851e-04   -7.479014e-04   -7.479014e-04   -7.479014e-04   -7.479014e-04   -6.166239e-04   -6.166239e-04   -7.318397e-04   -7.318397e-04   -3.811908e-05   -3.811908e-05    1.319018e-09    1.319018e-09    1.319018e-09    1.319018e-09   -7.120795e-10   -7.120795e-10    3.812125e-05    3.812125e-05    7.318386e-04    7.318386e-04    7.478944e-04    7.478944e-04    7.478944e-04    7.478944e-04    6.166273e-04    6.166273e-04    7.977959e-04    7.977959e-04    1.476368e-03    1.476368e-03    1.450348e-03    1.450348e-03    1.450348e-03    1.450348e-03    1.199116e-03    1.199116e-03    1.494650e-03    1.494650e-03    2.160865e-03    2.160865e-03    2.115727e-03    2.115727e-03    2.115727e-03    2.115727e-03    1.686345e-03    1.686345e-03    2.163855e-03    2.163855e-03    2.728205e-03    2.728205e-03    2.475479e-03    2.475479e-03    2.475479e-03    2.475479e-03    2.156059e-03    2.156059e-03    2.405715e-03    2.405715e-03    3.234959e-03    3.234959e-03    3.629992e-03    3.629992e-03    3.629992e-03    3.629992e-03    1.999677e-03    1.999677e-03    3.976428e-03    3.976428e-03    3.210997e-03    3.210997e-03    0.000000e+00    0.000000e+00    0.000000e+00    0.000000e+00    3.952358e-03    3.952358e-03 
   2.000000e+00    2.000000e+00    2.000000e+00   -2.000000e+00   -2.000000e+00   -2.000000e+00   -2.000000e+00   -2.000000e+00   -2.000000e+00    2.000000e+00    2.000000e+00    2.000000e+00    2.000000e+00    2.000000e+00    2.000000e+00    2.000000e+00    2.000000e+00    2.000000e+00   -2.000000e+00   -2.000000e+00   -2.000000e+00    2.000000e+00    2.000000e+00    2.000000e+00   -2.000000e+00   -2.000000e+00   -2.000000e+00   -2.000000e+00   -2.000000e+00   -2.000000e+00   -2.000000e+00   -2.000000e+00   -2.000000e+00    2.000000e+00    2.000000e+00    2.000000e+00    2.000000e+00    2.000000e+00    2.000000e+00    3.585138e+06    3.585138e+06    3.585138e+06    3.585138e+06    3.585138e+06    3.585138e+06    1.038848e+07    1.038848e+07    1.038848e+07    1.038848e+07    1.038848e+07    1.038848e+07    1.606263e+07    1.606263e+07    1.606263e+07    1.606263e+07    1.606263e+07    1.606263e+07    2.029569e+07    2.029569e+07    2.029569e+07    2.029569e+07    2.029569e+07    2.029569e+07    2.312127e+07    2.312127e+07    2.312127e+07    2.312127e+07    2.312127e+07    2.312127e+07    2.453350e+07    2.453350e+07    2.453350e+07    2.453350e+07    2.453350e+07    2.453350e+07    2.453350e+07    2.453350e+07    2.453350e+07    2.453350e+07    2.453350e+07    2.453350e+07    2.312127e+07    2.312127e+07    2.312127e+07    2.312127e+07    2.312127e+07    2.312127e+07    2.029570e+07    2.029570e+07    2.029570e+07    2.029570e+07    2.029570e+07    2.029570e+07    1.606263e+07    1.606263e+07    1.606263e+07    1.606263e+07    1.606263e+07    1.606263e+07    1.038848e+07    1.038848e+07    1.038848e+07    1.038848e+07    1.038848e+07    1.038848e+07    3.585139e+06    3.585139e+06    3.585139e+06    3.585139e+06    3.585139e+06    3.585139e+06   -4.735719e+06   -4.735719e+06    1.888851e+06    1.888851e+06    3.220186e+06    3.220186e+06    3.969035e+06    3.969035e+06    4.589819e+06    4.589819e+06    4.946188e+06    4.946188e+06    5.067343e+06    5.067343e+06    4.946188e+06    4.946188e+06    4.589820e+06    4.589820e+06    3.969035e+06    3.969035e+06    3.220186e+06    3.220186e+06    1.888851e+06    1.888851e+06   -4.735720e+06   -4.735720e+06   -2.395196e+07   -2.395196e+07    4.527943e+07    4.527943e+07   -5.351705e+07   -5.351705e+07   -7.378640e+07   -7.378640e+07    3.545727e+07    3.545727e+07   -5.142731e+07   -5.142731e+07   -1.138553e+08   -1.138553e+08    2.063829e+07    2.063829e+07   -4.575120e+07   -4.575120e+07   -1.436879e+08   -1.436879e+08    7.802238e+06    7.802238e+06   -3.984372e+07   -3.984372e+07   -1.636219e+08   -1.636219e+08   -4.040713e+06   -4.040713e+06   -3.258840e+07   -3.258840e+07   -1.735814e+08   -1.735814e+08   -1.470337e+07   -1.470337e+07   -2.422508e+07   -2.422508e+07   -1.735814e+08   -1.735814e+08   -2.422508e+07   -2.422508e+07   -1.470337e+07   -1.470337e+07   -1.636219e+08   -1.636219e+08   -3.258840e+07   -3.258840e+07   -4.040718e+06   -4.040718e+06   -1.436879e+08   -1.436879e+08   -3.984373e+07   -3.984373e+07    7.802240e+06    7.802240e+06   -1.138553e+08   -1.138553e+08   -4.575120e+07   -4.575120e+07    2.063829e+07    2.063829e+07   -7.378641e+07   -7.378641e+07   -5.142731e+07   -5.142731e+07    3.545727e+07    3.545727e+07   -2.395196e+07   -2.395196e+07   -5.351706e+07   -5.351706e+07    4.527943e+07    4.527943e+07 
   0.000000e+00    0.000000e+00    0.000000e+00    4.119397e+03    4.119397e+03    4.119397e+03    4.767357e+03    4.767357e+03    4.767357e+03    4.938521e+03    4.938521e+03    4.938521e+03    4.983685e+03    4.983685e+03    4.983685e+03    4.995411e+03    4.995411e+03    4.995411e+03    4.997734e+03    4.997734e+03    4.997734e+03    4.995411e+03    4.995411e+03    4.995411e+03    4.983685e+03    4.983685e+03    4.983685e+03    4.938521e+03    4.938521e+03    4.938521e+03    4.767357e+03    4.767357e+03    4.767357e+03    4.119397e+03    4.119397e+03    4.119397e+03    3.492460e-10    3.456080e-10    3.383320e-10    1.191724e+04    4.137215e+03    1.422801e+03    1.191724e+04    4.137215e+03    1.422801e+03    2.363704e+03    2.363704e+03    2.131608e+03    2.363704e+03    2.363704e+03    2.131608e+03    2.486519e+03    1.598942e+03    1.598942e+03    2.486519e+03    1.598942e+03    1.598942e+03    1.835441e+03    1.721504e+03    1.721504e+03    1.835441e+03    1.721504e+03    1.721504e+03    1.779192e+03    1.743938e+03    1.743938e+03    1.779192e+03    1.743938e+03    1.743938e+03    1.720689e+03    1.748259e+03    1.748259e+03    1.720689e+03    1.748259e+03    1.748259e+03    1.748255e+03    1.748255e+03    1.720678e+03    1.748255e+03    1.748255e+03    1.720678e+03    1.744045e+03    1.744045e+03    1.779249e+03    1.744045e+03    1.744045e+03    1.779249e+03    1.721597e+03    1.721597e+03    1.835490e+03    1.721597e+03    1.721597e+03    1.835490e+03    1.599025e+03    1.599025e+03    2.486569e+03    1.599025e+03    1.599025e+03    2.486569e+03    2.131657e+03    2.363777e+03    2.363777e+03    2.131657e+03    2.363777e+03    2.363777e+03    1.422748e+03    4.136887e+03    1.191729e+04    1.422748e+03    4.136887e+03    1.191729e+04    4.391507e+03    4.391507e+03    1.811461e+03    1.811461e+03    3.549115e+02    3.549115e+02    4.770913e+02    4.770913e+02    2.791446e+02    2.791446e+02    1.458638e+02    1.458638e+02    2.256774e-03    2.256774e-03    1.458523e+02    1.458523e+02    2.791469e+02    2.791469e+02    4.770908e+02    4.770908e+02    3.549119e+02    3.549119e+02    1.811460e+03    1.811460e+03    4.391507e+03    4.391507e+03    0.000000e+00    0.000000e+00    0.000000e+00    0.000000e+00    0.000000e+00    0.000000e+00    0.000000e+00    0.000000e+00    0.000000e+00    0.000000e+00    0.000000e+00    0.000000e+00    0.000000e+00    0.000000e+00    0.000000e+00    0.000000e+00    0.000000e+00    0.000000e+00    0.000000e+00    0.000000e+00    0.000000e+00    0.000000e+00    0.000000e+00    0.000000e+00    0.000000e+00    0.000000e+00    0.000000e+00    0.000000e+00    0.000000e+00    0.000000e+00    0.000000e+00    0.000000e+00    0.000000e+00    0.000000e+00    0.000000e+00    0.000000e+00    0.000000e+00    0.000000e+00    0.000000e+00    0.000000e+00    0.000000e+00    0.000000e+00    0.000000e+00    0.000000e+00    0.000000e+00    0.000000e+00    0.000000e+00    0.000000e+00    0.000000e+00    0.000000e+00    0.000000e+00    0.000000e+00    0.000000e+00    0.000000e+00    0.000000e+00    0.000000e+00    0.000000e+00    0.000000e+00    0.000000e+00    0.000000e+00    0.000000e+00    0.000000e+00    0.000000e+00    0.000000e+00    0.000000e+00    0.000000e+00    0.000000e+00    0.000000e+00    0.000000e+00    0.000000e+00    0.000000e+00    0.000000e+00 
   0.000000e+00    0.000000e+00    0.000000e+00    6.411938e-11    6.457412e-11    6.366463e-11    4.047251e-11    4.092726e-11    4.001777e-11    3.410605e-11    3.410605e-11    3.410605e-11    2.978595e-11    2.978595e-11    2.955858e-11    2.376055e-11    2.398792e-11    2.387424e-11    2.206493e-12    2.206493e-12    2.206493e-12    2.273737e-11    2.296474e-11    2.250999e-11    3.637979e-11    3.637979e-11    3.637979e-11    4.001777e-11    4.047251e-11    3.956302e-11    3.910827e-11    3.956302e-11    3.774403e-11    5.184120e-11    5.275069e-11    5.093170e-11    0.000000e+00    0.000000e+00    0.000000e+00    1.196762e+03    1.196762e+03    1.196762e+03    1.196762e+03    1.196762e+03    1.196762e+03    3.161594e+02    3.161594e+02    3.161594e+02    3.161594e+02    3.161594e+02    3.161594e+02    8.351618e+01    8.351618e+01    8.351618e+01    8.351618e+01    8.351618e+01    8.351618e+01    2.203693e+01    2.203693e+01    2.203693e+01    2.203693e+01    2.203693e+01    2.203693e+01    5.721752e+00    5.721752e+00    5.721752e+00    5.721752e+00    5.721752e+00    5.721752e+00    1.133139e+00    1.133139e+00    1.133139e+00    1.133139e+00    1.133139e+00    1.133139e+00    1.133139e+00    1.133139e+00    1.133139e+00    1.133139e+00    1.133139e+00    1.133139e+00    5.721752e+00    5.721752e+00    5.721752e+00    5.721752e+00    5.721752e+00    5.721752e+00    2.203693e+01    2.203693e+01    2.203693e+01    2.203693e+01    2.203693e+01    2.203693e+01    8.351618e+01    8.351618e+01    8.351618e+01    8.351618e+01    8.351618e+01    8.351618e+01    3.161594e+02    3.161594e+02    3.161594e+02    3.161594e+02    3.161594e+02    3.161594e+02    1.196762e+03    1.196762e+03    1.196762e+03    1.196762e+03    1.196762e+03    1.196762e+03    0.000000e+00    0.000000e+00    8.077936e-28    4.038968e-28    4.038968e-28    4.038968e-28    4.038968e-28    4.038968e-28    4.038968e-28    4.038968e-28    2.524355e-29    2.524355e-29    2.019484e-28    2.019484e-28    8.077936e-28    8.077936e-28    1.615587e-27    1.615587e-27    8.077936e-28    8.077936e-28    8.077936e-28    8.077936e-28    1.615587e-27    8.077936e-28    0.000000e+00    0.000000e+00    0.000000e+00    0.000000e+00    0.000000e+00    0.000000e+00    0.000000e+00    0.000000e+00    0.000000e+00    0.000000e+00    0.000000e+00    0.000000e+00    0.000000e+00    0.000000e+00    0.000000e+00    0.000000e+00    0.000000e+00    0.000000e+00    0.000000e+00    0.000000e+00    0.000000e+00    0.000000e+00    0.000000e+00    0.000000e+00    0.000000e+00    0.000000e+00    0.000000e+00    0.000000e+00    0.000000e+00    0.000000e+00    0.000000e+00    0.000000e+00    0.000000e+00    0.000000e+00    0.000000e+00    0.000000e+00    0.000000e+00    0.000000e+00    0.000000e+00    0.000000e+00    0.000000e+00    0.000000e+00    0.000000e+00    0.000000e+00    0.000000e+00    0.000000e+00    0.000000e+00    0.000000e+00    0.000000e+00    0.000000e+00    0.000000e+00    0.000000e+00    0.000000e+00    0.000000e+00    0.000000e+00    0.000000e+00    0.000000e+00    0.000000e+00    0.000000e+00    0.000000e+00    0.000000e+00    0.000000e+00    0.000000e+00    0.000000e+00    0.000000e+00    0.000000e+00    0.000000e+00    0.000000e+00    0.000000e+00    0.000000e+00    0.000000e+00    0.000000e+00    0.000000e+00    0.000000e+00 
1 2
2 3
3 4
11 12
12 13
13 14
21 22
22 23
23 24
31 32
32 33
33 34
41 42
42 43
43 44
51 52
52 53
53 54
61 62
62 63
63 64
71 72
72 73
73 74
81 82
82 83
83 84
91 92
92 93
93 94
101 102
102 103
103 104
111 112
112 113
113 114
121 122
122 123
123 124
1 7
7 9
9 11
4 8
8 10
10 14
11 17
17 19
19 21
14 18
18 20
20 24
21 27
27 29
29 31
24 28
28 30
30 34
31 37
37 39
39 41
34 38
38 40
40 44
41 47
47 49
49 51
44 48
48 50
50 54
51 57
57 59
59 61
54 58
58 60
60 64
61 67
67 69
69 71
64 68
68 70
70 74
71 77
77 79
79 81
74 78
78 80
80 84
81 87
87 89
89 91
84 88
88 90
90 94
91 97
97 99
99 101
94 98
98 100
100 104
101 107
107 109
109 111
104 108
108 110
110 114
111 117
117 119
119 121
114 118
118 120
120 124
1 5
4 6
11 15
14 16
21 25
24 26
31 35
34 36
41 45
44 46
51 55
54 56
61 65
64 66
71 75
74 76
81 85
84 86
91 95
94 96
101 105
104 106
111 115
114 116
121 125
124 126
5 15
6 16
5 11
6 14
15 1
16 4
15 25
16 26
15 21
16 24
25 11
26 14
25 35
26 36
25 31
26 34
35 21
36 24
35 45
36 46
35 41
36 44
45 31
46 34
45 55
46 56
45 51
46 54
55 41
56 44
55 65
56 66
55 61
56 64
65 51
66 54
65 75
66 76
65 71
66 74
75 61
76 64
75 85
76 86
75 81
76 84
85 71
86 74
85 95
86 96
85 91
86 94
95 81
96 84
95 105
96 106
95 101
96 104
105 91
106 94
105 115
106 116
105 111
106 114
115 101
116 104
115 125
116 126
115 121
116 124
125 111
126 114
