TITLE = "FEM Line Output"
VARIABLES = "X", "Y", "Z", "U", "V", "W", "RX", "RY", "RZ", "Stress", "Moment", "Torsion"
ZONE T="Time=0.0000", STRANDID=1, SOLUTIONTIME=0.000000e+00, NODES=9, ELEMENTS=8, ZONETYPE=FELINESEG, DATAPACKING=BLOCK, VARLOCATION=([10,11,12]=CELLCENTERED)
   0.000000e+00    0.000000e+00    0.000000e+00    0.000000e+00    0.000000e+00    1.000000e+00    2.000000e+00    3.000000e+00    3.000000e+00 
   0.000000e+00    1.000000e+00    2.000000e+00    3.000000e+00    4.000000e+00    4.000000e+00    4.000000e+00    4.000000e+00    0.000000e+00 
   0.000000e+00    0.000000e+00    0.000000e+00    0.000000e+00    0.000000e+00    0.000000e+00    0.000000e+00    0.000000e+00    2.000000e+00 
   0.000000e+00   -5.770878e-04   -2.308351e-03   -5.193790e-03   -9.233404e-03   -9.233404e-03   -9.233404e-03   -9.233404e-03    0.000000e+00 
   0.000000e+00    3.205915e-07    6.411830e-07    9.617745e-07    1.282366e-06    5.130952e-03    1.103007e-02    1.731392e-02    0.000000e+00 
   0.000000e+00    7.473792e-04    2.717743e-03    5.503429e-03    8.696777e-03    1.681315e-02    2.574484e-02    3.508420e-02    0.000000e+00 
   0.000000e+00    1.426815e-03    2.445968e-03    3.057461e-03    3.261291e-03    3.261291e-03    3.261291e-03    3.261291e-03    0.000000e+00 
   0.000000e+00   -1.893206e-03   -3.786412e-03   -5.679618e-03   -7.572824e-03   -8.591977e-03   -9.203469e-03   -9.407300e-03    0.000000e+00 
   0.000000e+00    1.154176e-03    2.308351e-03    3.462527e-03    4.616702e-03    5.578515e-03    6.155603e-03    6.347966e-03    0.000000e+00 
   2.791177e+07    2.383524e+07    1.975871e+07    1.568218e+07    2.377112e+07    1.584741e+07    7.923707e+06   -9.127379e+06 
   3.329501e+03    2.802571e+03    2.355085e+03    2.040009e+03    2.802571e+03    1.868381e+03    9.341903e+02    0.000000e+00 
   2.038226e+03    2.038226e+03    2.038226e+03    2.038226e+03    9.094947e-13    9.094947e-13    9.094947e-13    0.000000e+00 
1 2
2 3
3 4
4 5
5 6
6 7
7 8
8 9
