TITLE = "FEM Line Output"
VARIABLES = "X", "Y", "Z", "U", "V", "W", "RX", "RY", "RZ", "Stress", "Moment", "Torsion"
ZONE T="Time=0.0020", STRANDID=1, SOLUTIONTIME=2.000000e-03, NODES=9, ELEMENTS=8, ZONETYPE=FELINESEG, DATAPACKING=BLOCK, VARLOCATION=([10,11,12]=CELLCENTERED)
   0.000000e+00    5.000000e-01    1.000000e+00    1.500000e+00    2.000000e+00    2.000000e+00    2.000000e+00    2.000000e+00    2.000000e+00 
   0.000000e+00    0.000000e+00    0.000000e+00    0.000000e+00    0.000000e+00    5.000000e-01    1.000000e+00    1.500000e+00    2.000000e+00 
   0.000000e+00    0.000000e+00    0.000000e+00    0.000000e+00    0.000000e+00    0.000000e+00    0.000000e+00    0.000000e+00    0.000000e+00 
   0.000000e+00    4.197089e-17    8.766887e-17    1.411520e-16    2.071697e-16   -5.650509e-16    2.724385e-18    2.336997e-17   -1.006959e-17 
   0.000000e+00   -1.855504e-17   -2.413130e-16    4.986022e-16    5.856024e-15    6.362052e-15    7.433041e-15    9.164099e-15    1.170895e-14 
   0.000000e+00   -1.641293e-20   -6.524001e-18    4.037435e-19    1.596232e-16    1.665871e-16   -4.703603e-15   -1.705063e-15    1.156966e-13 
   0.000000e+00    1.299333e-16    2.906035e-16    5.200185e-16    8.724484e-16   -2.548573e-15   -1.675804e-14    7.042543e-14    3.756676e-13 
   0.000000e+00    3.395842e-18    2.141860e-17   -1.062480e-16   -4.741915e-16   -3.027790e-16   -2.029916e-16   -1.512236e-16   -1.352288e-16 
   0.000000e+00   -1.897946e-16   -4.912212e-16    5.453749e-15    9.816553e-15   -1.767257e-15   -3.583561e-16    7.965599e-17    5.802649e-17 
   2.778643e-05    3.734210e-05    2.664450e-04    4.939713e-04    9.023712e-04    7.599416e-04    4.957013e-03    8.534273e-03 
   1.788948e-09    3.105757e-09    3.985768e-08    7.615756e-08    8.839668e-08    4.921326e-08    7.073438e-07    1.252611e-06 
   2.817708e-10    3.484262e-10    4.975047e-10    7.642724e-10    3.717216e-10    2.163971e-10    1.122631e-10    3.468594e-11 
1 2
2 3
3 4
4 5
5 6
6 7
7 8
8 9
ZONE T="Time=0.0040", STRANDID=1, SOLUTIONTIME=4.000000e-03, NODES=9, ELEMENTS=8, ZONETYPE=FELINESEG, DATAPACKING=BLOCK, VARLOCATION=([10,11,12]=CELLCENTERED)
   0.000000e+00    5.000000e-01    1.000000e+00    1.500000e+00    2.000000e+00    2.000000e+00    2.000000e+00    2.000000e+00    2.000000e+00 
   0.000000e+00    0.000000e+00    0.000000e+00    0.000000e+00    0.000000e+00    5.000000e-01    1.000000e+00    1.500000e+00    2.000000e+00 
   0.000000e+00    0.000000e+00    0.000000e+00    0.000000e+00    0.000000e+00    0.000000e+00    0.000000e+00    0.000000e+00    0.000000e+00 
   0.000000e+00    3.492639e-16    7.295432e-16    1.174607e-15    1.723978e-15   -4.702115e-15    2.267105e-17    1.944750e-16   -8.379484e-17 
   0.000000e+00   -1.544073e-16   -2.008105e-15    4.149157e-15    4.873135e-14    5.294230e-14    6.185462e-14    7.625975e-14    9.743688e-14 
   0.000000e+00   -1.365840e-19   -5.429002e-17    3.359804e-18    1.328317e-15    1.386266e-15   -3.914140e-14   -1.418880e-14    9.627783e-13 
   0.000000e+00    1.081250e-15    2.418279e-15    4.327372e-15    7.260144e-15   -2.120815e-14   -1.394533e-13    5.860506e-13    3.126147e-12 
   0.000000e+00    2.825879e-17    1.782366e-16   -8.841513e-16   -3.946023e-15   -2.519600e-15   -1.689211e-15   -1.258419e-15   -1.125317e-15 
   0.000000e+00   -1.579390e-15   -4.087734e-15    4.538379e-14    8.168919e-14   -1.470636e-14   -2.982089e-15    6.628634e-16    4.828720e-16 
   2.312270e-04    3.107452e-04    2.217243e-03    4.110620e-03    7.509151e-03    6.323912e-03    4.125016e-02    7.101860e-02 
   1.488687e-08    2.584479e-08    3.316787e-07    6.337509e-07    7.355997e-07    4.095319e-07    5.886215e-06    1.042370e-05 
   2.344777e-09    2.899454e-09    4.140022e-09    6.359949e-09    3.093312e-09    1.800766e-09    9.342064e-10    2.886419e-10 
1 2
2 3
3 4
4 5
5 6
6 7
7 8
8 9
ZONE T="Time=0.0060", STRANDID=1, SOLUTIONTIME=6.000000e-03, NODES=9, ELEMENTS=8, ZONETYPE=FELINESEG, DATAPACKING=BLOCK, VARLOCATION=([10,11,12]=CELLCENTERED)
   0.000000e+00    5.000000e-01    1.000000e+00    1.500000e+00    2.000000e+00    2.000000e+00    2.000000e+00    2.000000e+00    2.000000e+00 
   0.000000e+00    0.000000e+00    0.000000e+00    0.000000e+00    0.000000e+00    5.000000e-01    1.000000e+00    1.500000e+00    2.000000e+00 
   0.000000e+00    0.000000e+00    0.000000e+00    0.000000e+00    0.000000e+00    0.000000e+00    0.000000e+00    0.000000e+00    0.000000e+00 
   0.000000e+00    1.192506e-15    2.490909e-15    4.010508e-15    5.886249e-15   -1.605462e-14    7.740609e-17    6.640041e-16   -2.861041e-16 
   0.000000e+00   -5.271997e-16   -6.856355e-15    1.416664e-14    1.663854e-13    1.807630e-13    2.111927e-13    2.603767e-13    3.326827e-13 
   0.000000e+00   -4.663564e-19   -1.853648e-16    1.147162e-17    4.535332e-15    4.733176e-15   -1.336421e-13   -4.844533e-14    3.287253e-12 
   0.000000e+00    3.691754e-15    8.256824e-15    1.477512e-14    2.478859e-14   -7.241189e-14   -4.761409e-13    2.000976e-12    1.067373e-11 
   0.000000e+00    9.648528e-17    6.085610e-16   -3.018796e-15   -1.347308e-14   -8.602781e-15   -5.767547e-15   -4.296676e-15   -3.842221e-15 
   0.000000e+00   -5.392579e-15   -1.395691e-14    1.549557e-13    2.789147e-13   -5.021252e-14   -1.018187e-14    2.263241e-15    1.648690e-15 
   7.894876e-04    1.060990e-03    7.570421e-03    1.403506e-02    2.563880e-02    2.159199e-02    1.408421e-01    2.424816e-01 
   5.082886e-08    8.824293e-08    1.132464e-06    2.163841e-06    2.511588e-06    1.398282e-06    2.009754e-05    3.559004e-05 
   8.005864e-09    9.899719e-09    1.413544e-08    2.171502e-08    1.056163e-08    6.148431e-09    3.189701e-09    9.855225e-10 
1 2
2 3
3 4
4 5
5 6
6 7
7 8
8 9
ZONE T="Time=0.0080", STRANDID=1, SOLUTIONTIME=8.000000e-03, NODES=9, ELEMENTS=8, ZONETYPE=FELINESEG, DATAPACKING=BLOCK, VARLOCATION=([10,11,12]=CELLCENTERED)
   0.000000e+00    5.000000e-01    1.000000e+00    1.500000e+00    2.000000e+00    2.000000e+00    2.000000e+00    2.000000e+00    2.000000e+00 
   0.000000e+00    0.000000e+00    0.000000e+00    0.000000e+00    0.000000e+00    5.000000e-01    1.000000e+00    1.500000e+00    2.000000e+00 
   0.000000e+00    0.000000e+00    0.000000e+00    0.000000e+00    0.000000e+00    0.000000e+00    0.000000e+00    0.000000e+00    0.000000e+00 
   0.000000e+00    2.834639e-15    5.921000e-15    9.533156e-15    1.399187e-14   -3.816256e-14    1.839959e-16    1.578368e-15   -6.800824e-16 
   0.000000e+00   -1.253179e-15   -1.629786e-14    3.367475e-14    3.955056e-13    4.296818e-13    5.020145e-13    6.189270e-13    7.908013e-13 
   0.000000e+00   -1.108587e-18   -4.406209e-16    2.726886e-17    1.078070e-14    1.125094e-14   -3.176732e-13   -1.151565e-13    7.813945e-12 
   0.000000e+00    8.775459e-15    1.962683e-14    3.512109e-14    5.892354e-14   -1.721264e-13   -1.131808e-12    4.756410e-12    2.537192e-11 
   0.000000e+00    2.293502e-16    1.446578e-15   -7.175822e-15   -3.202613e-14   -2.044921e-14   -1.370973e-14   -1.021340e-14   -9.133141e-15 
   0.000000e+00   -1.281841e-14   -3.317619e-14    3.683367e-13    6.629926e-13   -1.193574e-13   -2.420277e-14    5.379825e-15    3.919012e-15 
   1.876647e-03    2.522020e-03    1.799523e-02    3.336195e-02    6.094455e-02    5.132511e-02    3.347878e-01    5.763895e-01 
   1.208225e-07    2.097574e-07    2.691917e-06    5.143546e-06    5.970154e-06    3.323778e-06    4.777274e-05    8.459909e-05 
   1.903028e-08    2.353206e-08    3.360055e-08    5.161753e-08    2.510547e-08    1.461511e-08    7.582069e-09    2.342633e-09 
1 2
2 3
3 4
4 5
5 6
6 7
7 8
8 9
ZONE T="Time=0.0100", STRANDID=1, SOLUTIONTIME=1.000000e-02, NODES=9, ELEMENTS=8, ZONETYPE=FELINESEG, DATAPACKING=BLOCK, VARLOCATION=([10,11,12]=CELLCENTERED)
   0.000000e+00    5.000000e-01    1.000000e+00    1.500000e+00    2.000000e+00    2.000000e+00    2.000000e+00    2.000000e+00    2.000000e+00 
   0.000000e+00    0.000000e+00    0.000000e+00    0.000000e+00    0.000000e+00    5.000000e-01    1.000000e+00    1.500000e+00    2.000000e+00 
   0.000000e+00    0.000000e+00    0.000000e+00    0.000000e+00    0.000000e+00    0.000000e+00    0.000000e+00    0.000000e+00    0.000000e+00 
   0.000000e+00    5.527117e-15    1.154505e-14    1.858821e-14    2.728203e-14   -7.441122e-14    3.587597e-16    3.077580e-15   -1.326058e-15 
   0.000000e+00   -2.443513e-15   -3.177837e-14    6.566070e-14    7.711759e-13    8.378143e-13    9.788521e-13    1.206814e-12    1.541942e-12 
   0.000000e+00   -2.161665e-18   -8.591454e-16    5.317089e-17    2.102075e-14    2.193758e-14   -6.194147e-13   -2.245372e-13    1.523601e-11 
   0.000000e+00    1.711080e-14    3.826931e-14    6.848075e-14    1.148919e-13   -3.356207e-13   -2.206853e-12    9.274280e-12    4.947138e-11 
   0.000000e+00    4.471992e-16    2.820611e-15   -1.399179e-14   -6.244618e-14   -3.987292e-14   -2.673194e-14   -1.991462e-14   -1.780827e-14 
   0.000000e+00   -2.499397e-14   -6.468850e-14    7.182008e-13    1.292735e-12   -2.327288e-13   -4.719175e-14    1.048984e-14    7.641483e-15 
   3.659178e-03    4.917557e-03    3.508797e-02    6.505073e-02    1.188326e-01    1.000762e-01    6.527854e-01    1.123872e+00 
   2.355856e-07    4.089952e-07    5.248831e-06    1.002913e-05    1.164089e-05    6.480865e-06    9.314959e-05    1.649554e-04 
   3.710615e-08    4.588392e-08    6.551592e-08    1.006463e-07    4.895192e-08    2.849727e-08    1.478390e-08    4.567784e-09 
1 2
2 3
3 4
4 5
5 6
6 7
7 8
8 9
ZONE T="Time=0.0120", STRANDID=1, SOLUTIONTIME=1.200000e-02, NODES=9, ELEMENTS=8, ZONETYPE=FELINESEG, DATAPACKING=BLOCK, VARLOCATION=([10,11,12]=CELLCENTERED)
   0.000000e+00    5.000000e-01    1.000000e+00    1.500000e+00    2.000000e+00    2.000000e+00    2.000000e+00    2.000000e+00    2.000000e+00 
   0.000000e+00    0.000000e+00    0.000000e+00    0.000000e+00    0.000000e+00    5.000000e-01    1.000000e+00    1.500000e+00    2.000000e+00 
   0.000000e+00    0.000000e+00    0.000000e+00    0.000000e+00    0.000000e+00    0.000000e+00    0.000000e+00    0.000000e+00    0.000000e+00 
   0.000000e+00    9.506283e-15    1.985674e-14    3.197051e-14    4.692332e-14   -1.279825e-13    6.170345e-16    5.293242e-15   -2.280734e-15 
   0.000000e+00   -4.202694e-15   -5.465676e-14    1.129322e-13    1.326373e-12    1.440986e-12    1.683562e-12    2.075641e-12    2.652041e-12 
   0.000000e+00   -3.718105e-18   -1.477678e-15    9.145203e-17    3.615439e-14    3.773110e-14   -1.065354e-12   -3.861884e-13    2.620494e-11 
   0.000000e+00    2.942946e-14    6.582070e-14    1.177824e-13    1.976065e-13   -5.772466e-13   -3.795644e-12    1.595116e-11    8.508756e-11 
   0.000000e+00    7.691559e-16    4.851276e-15   -2.406501e-14   -1.074036e-13   -6.857896e-14   -4.597728e-14   -3.425192e-14   -3.062913e-14 
   0.000000e+00   -4.298805e-14   -1.112600e-13    1.235259e-12    2.223420e-12   -4.002785e-13   -8.116683e-14    1.804185e-14    1.314287e-14 
   6.293550e-03    8.457882e-03    6.034904e-02    1.118830e-01    2.043844e-01    1.721245e-01    1.122749e+00    1.932986e+00 
   4.051921e-07    7.034455e-07    9.027650e-06    1.724946e-05    2.002158e-05    1.114667e-05    1.602113e-04    2.837125e-04 
   6.382014e-08    7.891732e-08    1.126831e-07    1.731049e-07    8.419425e-08    4.901354e-08    2.542739e-08    7.856306e-09 
1 2
2 3
3 4
4 5
5 6
6 7
7 8
8 9
ZONE T="Time=0.0140", STRANDID=1, SOLUTIONTIME=1.400000e-02, NODES=9, ELEMENTS=8, ZONETYPE=FELINESEG, DATAPACKING=BLOCK, VARLOCATION=([10,11,12]=CELLCENTERED)
   0.000000e+00    5.000000e-01    1.000000e+00    1.500000e+00    2.000000e+00    2.000000e+00    2.000000e+00    2.000000e+00    2.000000e+00 
   0.000000e+00    0.000000e+00    0.000000e+00    0.000000e+00    0.000000e+00    5.000000e-01    1.000000e+00    1.500000e+00    2.000000e+00 
   0.000000e+00    0.000000e+00    0.000000e+00    0.000000e+00    0.000000e+00    0.000000e+00    0.000000e+00    0.000000e+00    0.000000e+00 
   0.000000e+00    1.498998e-14    3.131109e-14    5.041268e-14    7.399101e-14   -2.018092e-13    9.729542e-16    8.346654e-15   -3.596376e-15 
   0.000000e+00   -6.627033e-15   -8.618552e-14    1.780773e-13    2.091491e-12    2.272219e-12    2.654724e-12    3.272974e-12    4.181869e-12 
   0.000000e+00   -5.863223e-18   -2.330081e-15    1.442089e-16    5.701014e-14    5.949605e-14   -1.679903e-12   -6.089592e-13    4.132125e-11 
   0.000000e+00    4.640580e-14    1.037893e-13    1.857249e-13    3.115954e-13   -9.102322e-13   -5.985159e-12    2.515259e-11    1.341703e-10 
   0.000000e+00    1.212847e-15    7.649746e-15   -3.794699e-14   -1.693595e-13   -1.081389e-13   -7.249941e-14   -5.401024e-14   -4.829764e-14 
   0.000000e+00   -6.778575e-14   -1.754402e-13    1.947819e-12    3.506000e-12   -6.311789e-13   -1.279880e-13    2.844929e-14    2.072434e-14 
   9.923983e-03    1.333681e-02    9.516136e-02    1.764227e-01    3.222835e-01    2.714145e-01    1.770405e+00    3.048028e+00 
   6.389272e-07    1.109228e-06    1.423525e-05    2.719980e-05    3.157102e-05    1.757664e-05    2.526290e-04    4.473718e-04 
   1.006347e-07    1.244406e-07    1.776841e-07    2.729601e-07    1.327619e-07    7.728710e-08    4.009524e-08    1.238823e-08 
1 2
2 3
3 4
4 5
5 6
6 7
7 8
8 9
ZONE T="Time=0.0160", STRANDID=1, SOLUTIONTIME=1.600000e-02, NODES=9, ELEMENTS=8, ZONETYPE=FELINESEG, DATAPACKING=BLOCK, VARLOCATION=([10,11,12]=CELLCENTERED)
   0.000000e+00    5.000000e-01    1.000000e+00    1.500000e+00    2.000000e+00    2.000000e+00    2.000000e+00    2.000000e+00    2.000000e+00 
   0.000000e+00    0.000000e+00    0.000000e+00    0.000000e+00    0.000000e+00    5.000000e-01    1.000000e+00    1.500000e+00    2.000000e+00 
   0.000000e+00    0.000000e+00    0.000000e+00    0.000000e+00    0.000000e+00    0.000000e+00    0.000000e+00    0.000000e+00    0.000000e+00 
   0.000000e+00    2.217440e-14    4.631793e-14    7.457456e-14    1.094535e-13   -2.985329e-13    1.439246e-15    1.234706e-14   -5.320055e-15 
   0.000000e+00   -9.803277e-15   -1.274927e-13    2.634268e-13    3.093904e-12    3.361253e-12    3.927086e-12    4.841650e-12    6.186161e-12 
   0.000000e+00   -8.673920e-18   -3.446855e-15    2.133304e-16    8.433425e-14    8.801105e-14   -2.485051e-12   -9.008191e-13    6.112576e-11 
   0.000000e+00    6.864720e-14    1.535334e-13    2.747393e-13    4.609369e-13   -1.346492e-12   -8.853735e-12    3.720778e-11    1.984756e-10 
   0.000000e+00    1.794149e-15    1.131615e-14   -5.613443e-14   -2.505310e-13   -1.599683e-13   -1.072473e-13   -7.989657e-14   -7.144601e-14 
   0.000000e+00   -1.002743e-13   -2.595253e-13    2.881374e-12    5.186361e-12   -9.336915e-13   -1.893305e-13    4.208453e-14    3.065718e-14 
   1.468037e-02    1.972890e-02    1.407705e-01    2.609789e-01    4.767480e-01    4.014985e-01    2.618928e+00    4.508891e+00 
   9.451539e-07    1.640862e-06    2.105794e-05    4.023616e-05    4.670243e-05    2.600081e-05    3.737095e-04    6.617888e-04 
   1.488669e-07    1.840826e-07    2.628445e-07    4.037844e-07    1.963925e-07    1.143296e-07    5.931227e-08    1.832572e-08 
1 2
2 3
3 4
4 5
5 6
6 7
7 8
8 9
ZONE T="Time=0.0180", STRANDID=1, SOLUTIONTIME=1.800000e-02, NODES=9, ELEMENTS=8, ZONETYPE=FELINESEG, DATAPACKING=BLOCK, VARLOCATION=([10,11,12]=CELLCENTERED)
   0.000000e+00    5.000000e-01    1.000000e+00    1.500000e+00    2.000000e+00    2.000000e+00    2.000000e+00    2.000000e+00    2.000000e+00 
   0.000000e+00    0.000000e+00    0.000000e+00    0.000000e+00    0.000000e+00    5.000000e-01    1.000000e+00    1.500000e+00    2.000000e+00 
   0.000000e+00    0.000000e+00    0.000000e+00    0.000000e+00    0.000000e+00    0.000000e+00    0.000000e+00    0.000000e+00    0.000000e+00 
   0.000000e+00    3.123129e-14    6.523597e-14    1.050337e-13    1.541586e-13   -4.204655e-13    2.027046e-15    1.739011e-14   -7.492976e-15 
   0.000000e+00   -1.380736e-14   -1.795658e-13    3.710210e-13    4.357577e-12    4.734120e-12    5.531061e-12    6.819169e-12    8.712829e-12 
   0.000000e+00   -1.221758e-17   -4.854700e-15    3.004704e-16    1.187799e-13    1.239576e-13   -3.500045e-12   -1.268744e-12    8.609190e-11 
   0.000000e+00    9.668531e-14    2.162423e-13    3.869531e-13    6.492007e-13   -1.896455e-12   -1.246994e-11    5.240491e-11    2.795406e-10 
   0.000000e+00    2.526960e-15    1.593815e-14   -7.906214e-14   -3.528585e-13   -2.253061e-13   -1.510517e-13   -1.125298e-13   -1.006276e-13 
   0.000000e+00   -1.412305e-13   -3.655253e-13    4.058241e-12    7.304673e-12   -1.315048e-12   -2.666607e-13    5.927350e-14    4.317882e-14 
   2.067641e-02    2.778697e-02    1.982667e-01    3.675728e-01    6.714705e-01    5.654862e-01    3.688600e+00    6.350495e+00 
   1.331192e-06    2.311055e-06    2.965883e-05    5.667017e-05    6.577752e-05    3.662058e-05    5.263470e-04    9.320888e-04 
   2.096698e-07    2.592689e-07    3.702000e-07    5.687049e-07    2.766075e-07    1.610266e-07    8.353790e-08    2.581072e-08 
1 2
2 3
3 4
4 5
5 6
6 7
7 8
8 9
ZONE T="Time=0.0200", STRANDID=1, SOLUTIONTIME=2.000000e-02, NODES=9, ELEMENTS=8, ZONETYPE=FELINESEG, DATAPACKING=BLOCK, VARLOCATION=([10,11,12]=CELLCENTERED)
   0.000000e+00    5.000000e-01    1.000000e+00    1.500000e+00    2.000000e+00    2.000000e+00    2.000000e+00    2.000000e+00    2.000000e+00 
   0.000000e+00    0.000000e+00    0.000000e+00    0.000000e+00    0.000000e+00    5.000000e-01    1.000000e+00    1.500000e+00    2.000000e+00 
   0.000000e+00    0.000000e+00    0.000000e+00    0.000000e+00    0.000000e+00    0.000000e+00    0.000000e+00    0.000000e+00    0.000000e+00 
   0.000000e+00    4.230546e-14    8.836771e-14    1.422771e-13    2.088210e-13   -5.695568e-13    2.745741e-15    2.355642e-14   -1.014988e-14 
   0.000000e+00   -1.870332e-14   -2.432374e-13    5.025804e-13    5.902712e-12    6.412772e-12    7.492296e-12    9.237147e-12    1.180227e-11 
   0.000000e+00   -1.655111e-17   -6.576129e-15    4.070244e-16    1.608980e-13    1.679103e-13   -4.741113e-12   -1.718614e-12    1.166188e-10 
   0.000000e+00    1.309684e-13    2.929184e-13    5.241604e-13    8.793967e-13   -2.568916e-12   -1.689160e-11    7.098696e-11    3.786616e-10 
   0.000000e+00    3.423000e-15    2.158964e-14   -1.070968e-13   -4.779782e-13   -3.051973e-13   -2.046131e-13   -1.524317e-13   -1.363092e-13 
   0.000000e+00   -1.913091e-13   -4.951349e-13    5.497237e-12    9.894805e-12   -1.781345e-12   -3.612153e-13    8.029105e-14    5.848949e-14 
   2.800798e-02    3.763983e-02    2.685692e-01    4.979087e-01    9.095642e-01    7.659994e-01    4.996524e+00    8.602286e+00 
   1.803215e-06    3.130523e-06    4.017543e-05    7.676458e-05    8.910127e-05    4.960574e-05    7.129821e-04    1.262594e-03 
   2.840154e-07    3.512015e-07    5.014669e-07    7.703582e-07    3.746893e-07    2.181249e-07    1.131595e-07    3.496292e-08 
1 2
2 3
3 4
4 5
5 6
6 7
7 8
8 9
ZONE T="Time=0.0220", STRANDID=1, SOLUTIONTIME=2.200000e-02, NODES=9, ELEMENTS=8, ZONETYPE=FELINESEG, DATAPACKING=BLOCK, VARLOCATION=([10,11,12]=CELLCENTERED)
   0.000000e+00    5.000000e-01    1.000000e+00    1.500000e+00    2.000000e+00    2.000000e+00    2.000000e+00    2.000000e+00    2.000000e+00 
   0.000000e+00    0.000000e+00    0.000000e+00    0.000000e+00    0.000000e+00    5.000000e-01    1.000000e+00    1.500000e+00    2.000000e+00 
   0.000000e+00    0.000000e+00    0.000000e+00    0.000000e+00    0.000000e+00    0.000000e+00    0.000000e+00    0.000000e+00    0.000000e+00 
   0.000000e+00    5.551270e-14    1.159550e-13    1.866943e-13    2.740123e-13   -7.473658e-13    3.602830e-15    3.091048e-14   -1.331855e-14 
   0.000000e+00   -2.454236e-14   -3.191733e-13    6.594806e-13    7.745466e-12    8.414760e-12    9.831297e-12    1.212087e-11    1.548679e-11 
   0.000000e+00   -2.172012e-17   -8.629147e-15    5.341091e-16    2.111290e-13    2.203286e-13   -6.221233e-12   -2.255133e-12    1.530257e-10 
   0.000000e+00    1.718549e-13    3.843634e-13    6.877958e-13    1.153932e-12   -3.370906e-12   -2.216494e-11    9.314823e-11    4.968748e-10 
   0.000000e+00    4.491642e-15    2.832974e-14   -1.405315e-13   -6.271988e-13   -4.004773e-13   -2.684916e-13   -2.000197e-13   -1.788639e-13 
   0.000000e+00   -2.510338e-13   -6.497093e-13    7.213409e-12    1.298384e-11   -2.337458e-12   -4.739828e-13    1.053569e-13    7.674929e-14 
   3.675173e-02    4.939053e-02    3.524132e-01    6.533495e-01    1.193519e+00    1.005135e+00    6.556375e+00    1.128781e+01 
   2.366158e-06    4.107836e-06    5.271770e-05    1.007295e-04    1.169176e-04    6.509208e-05    9.355661e-04    1.656759e-03 
   3.726811e-07    4.608416e-07    6.580176e-07    1.010853e-06    4.916638e-07    2.862214e-07    1.484869e-07    4.587803e-08 
1 2
2 3
3 4
4 5
5 6
6 7
7 8
8 9
ZONE T="Time=0.0240", STRANDID=1, SOLUTIONTIME=2.400000e-02, NODES=9, ELEMENTS=8, ZONETYPE=FELINESEG, DATAPACKING=BLOCK, VARLOCATION=([10,11,12]=CELLCENTERED)
   0.000000e+00    5.000000e-01    1.000000e+00    1.500000e+00    2.000000e+00    2.000000e+00    2.000000e+00    2.000000e+00    2.000000e+00 
   0.000000e+00    0.000000e+00    0.000000e+00    0.000000e+00    0.000000e+00    5.000000e-01    1.000000e+00    1.500000e+00    2.000000e+00 
   0.000000e+00    0.000000e+00    0.000000e+00    0.000000e+00    0.000000e+00    0.000000e+00    0.000000e+00    0.000000e+00    0.000000e+00 
   0.000000e+00    7.093811e-14    1.481756e-13    2.385713e-13    3.501525e-13   -9.550383e-13    4.603818e-15    3.949969e-14   -1.701942e-14 
   0.000000e+00   -3.136214e-14   -4.078629e-13    8.427331e-13    9.897716e-12    1.075299e-11    1.256314e-11    1.548891e-11    1.979013e-11 
   0.000000e+00   -2.775831e-17   -1.102699e-14    6.825467e-16    2.697968e-13    2.815499e-13   -7.949944e-12   -2.881756e-12    1.955473e-10 
   0.000000e+00    2.196083e-13    4.911665e-13    8.789137e-13    1.474574e-12   -4.307597e-12   -2.832395e-11    1.190316e-10    6.349421e-10 
   0.000000e+00    5.739776e-15    3.620189e-14   -1.795820e-13   -8.014823e-13   -5.117604e-13   -3.430992e-13   -2.556005e-13   -2.285660e-13 
   0.000000e+00   -3.207897e-13   -8.302445e-13    9.217818e-12    1.659168e-11   -2.986972e-12   -6.056903e-13    1.346327e-13    9.807593e-14 
   4.696402e-02    6.311480e-02    4.503390e-01    8.348969e-01    1.525164e+00    1.284433e+00    8.378205e+00    1.442437e+01 
   3.023649e-06    5.249291e-06    6.736648e-05    1.287194e-04    1.494056e-04    8.317940e-05    1.195533e-03    2.117125e-03 
   4.762381e-07    5.888957e-07    8.408609e-07    1.291738e-06    6.282851e-07    3.657554e-07    1.897478e-07    5.862643e-08 
1 2
2 3
3 4
4 5
5 6
6 7
7 8
8 9
ZONE T="Time=0.0260", STRANDID=1, SOLUTIONTIME=2.600000e-02, NODES=9, ELEMENTS=8, ZONETYPE=FELINESEG, DATAPACKING=BLOCK, VARLOCATION=([10,11,12]=CELLCENTERED)
   0.000000e+00    5.000000e-01    1.000000e+00    1.500000e+00    2.000000e+00    2.000000e+00    2.000000e+00    2.000000e+00    2.000000e+00 
   0.000000e+00    0.000000e+00    0.000000e+00    0.000000e+00    0.000000e+00    5.000000e-01    1.000000e+00    1.500000e+00    2.000000e+00 
   0.000000e+00    0.000000e+00    0.000000e+00    0.000000e+00    0.000000e+00    0.000000e+00    0.000000e+00    0.000000e+00    0.000000e+00 
   0.000000e+00    8.863493e-14    1.851407e-13    2.980873e-13    4.375044e-13   -1.193291e-12    5.752137e-15    4.935369e-14   -2.126523e-14 
   0.000000e+00   -3.918619e-14   -5.096122e-13    1.052970e-12    1.236689e-11    1.343552e-11    1.569725e-11    1.935291e-11    2.472713e-11 
   0.000000e+00   -3.468695e-17   -1.377794e-14    8.528529e-16    3.371038e-13    3.517852e-13   -9.933211e-12   -3.600642e-12    2.443301e-10 
   0.000000e+00    2.743932e-13    6.136961e-13    1.098173e-12    1.842431e-12   -5.382220e-12   -3.538987e-11    1.487262e-10    7.933397e-10 
   0.000000e+00    7.171714e-15    4.523327e-14   -2.243830e-13   -1.001430e-12   -6.394308e-13   -4.286933e-13   -3.193661e-13   -2.855873e-13 
   0.000000e+00   -4.008173e-13   -1.037363e-12    1.151738e-11    2.073078e-11   -3.732127e-12   -7.567921e-13    1.682193e-13    1.225430e-13 
   5.868008e-02    7.885997e-02    5.626844e-01    1.043177e+00    1.905644e+00    1.604859e+00    1.046830e+01    1.802278e+01 
   3.777957e-06    6.558828e-06    8.417229e-05    1.608308e-04    1.866776e-04    1.039301e-04    1.493781e-03    2.645279e-03 
   5.950436e-07    7.358054e-07    1.050627e-06    1.613982e-06    7.850246e-07    4.570012e-07    2.370847e-07    7.325212e-08 
1 2
2 3
3 4
4 5
5 6
6 7
7 8
8 9
ZONE T="Time=0.0280", STRANDID=1, SOLUTIONTIME=2.800000e-02, NODES=9, ELEMENTS=8, ZONETYPE=FELINESEG, DATAPACKING=BLOCK, VARLOCATION=([10,11,12]=CELLCENTERED)
   0.000000e+00    5.000000e-01    1.000000e+00    1.500000e+00    2.000000e+00    2.000000e+00    2.000000e+00    2.000000e+00    2.000000e+00 
   0.000000e+00    0.000000e+00    0.000000e+00    0.000000e+00    0.000000e+00    5.000000e-01    1.000000e+00    1.500000e+00    2.000000e+00 
   0.000000e+00    0.000000e+00    0.000000e+00    0.000000e+00    0.000000e+00    0.000000e+00    0.000000e+00    0.000000e+00    0.000000e+00 
   0.000000e+00    1.086237e-13    2.268933e-13    3.653112e-13    5.361693e-13   -1.462400e-12    7.049094e-15    6.048393e-14   -2.606094e-14 
   0.000000e+00   -4.802363e-14   -6.245394e-13    1.290436e-12    1.515584e-11    1.646547e-11    1.923725e-11    2.371733e-11    3.030352e-11 
   0.000000e+00   -4.251458e-17   -1.688519e-14    1.045230e-15    4.131283e-13    4.311157e-13   -1.217334e-11   -4.412622e-12    2.994308e-10 
   0.000000e+00    3.362733e-13    7.520942e-13    1.345828e-12    2.257927e-12   -6.596024e-12   -4.337089e-11    1.822667e-10    9.722514e-10 
   0.000000e+00    8.789123e-15    5.543439e-14   -2.749866e-13   -1.227275e-12   -7.836370e-13   -5.253735e-13   -3.913907e-13   -3.499940e-13 
   0.000000e+00   -4.912098e-13   -1.271305e-12    1.411476e-11    2.540594e-11   -4.573788e-12   -9.274639e-13    2.061558e-13    1.501789e-13 
   7.191351e-02    9.664433e-02    6.895799e-01    1.278432e+00    2.335400e+00    1.966783e+00    1.282908e+01    2.208722e+01 
   4.629958e-06    8.037966e-06    1.031546e-04    1.971009e-04    2.287766e-04    1.273683e-04    1.830655e-03    3.241835e-03 
   7.292355e-07    9.017410e-07    1.287560e-06    1.977959e-06    9.620648e-07    5.600650e-07    2.905525e-07    8.977210e-08 
1 2
2 3
3 4
4 5
5 6
6 7
7 8
8 9
ZONE T="Time=0.0300", STRANDID=1, SOLUTIONTIME=3.000000e-02, NODES=9, ELEMENTS=8, ZONETYPE=FELINESEG, DATAPACKING=BLOCK, VARLOCATION=([10,11,12]=CELLCENTERED)
   0.000000e+00    5.000000e-01    1.000000e+00    1.500000e+00    2.000000e+00    2.000000e+00    2.000000e+00    2.000000e+00    2.000000e+00 
   0.000000e+00    0.000000e+00    0.000000e+00    0.000000e+00    0.000000e+00    5.000000e-01    1.000000e+00    1.500000e+00    2.000000e+00 
   0.000000e+00    0.000000e+00    0.000000e+00    0.000000e+00    0.000000e+00    0.000000e+00    0.000000e+00    0.000000e+00    0.000000e+00 
   0.000000e+00    1.308919e-13    2.734072e-13    4.402014e-13    6.460858e-13   -1.762199e-12    8.493853e-15    7.288350e-14   -3.140355e-14 
   0.000000e+00   -5.786899e-14   -7.525730e-13    1.554984e-12    1.826285e-11    1.984096e-11    2.318096e-11    2.857946e-11    3.651585e-11 
   0.000000e+00   -5.123695e-17   -2.034683e-14    1.259563e-15    4.978234e-13    5.194917e-13   -1.466893e-11   -5.317188e-12    3.608151e-10 
   0.000000e+00    4.052099e-13    9.062748e-13    1.621725e-12    2.720804e-12   -7.948259e-12   -5.226207e-11    2.196322e-10    1.171566e-09 
   0.000000e+00    1.059101e-14    6.679892e-14   -3.313616e-13   -1.478877e-12   -9.442898e-13   -6.330802e-13   -4.716297e-13   -4.217463e-13 
   0.000000e+00   -5.919112e-13   -1.531926e-12    1.700835e-11    3.061425e-11   -5.511432e-12   -1.117600e-12    2.484186e-13    1.809666e-13 
   8.665609e-02    1.164568e-01    8.309465e-01    1.540515e+00    2.814166e+00    2.369981e+00    1.545909e+01    2.661517e+01 
   5.579123e-06    9.685788e-06    1.243018e-04    2.375073e-04    2.756766e-04    1.534795e-04    2.205946e-03    3.906421e-03 
   8.787301e-07    1.086599e-06    1.551511e-06    2.383442e-06    1.159296e-06    6.748830e-07    3.501182e-07    1.081762e-07 
1 2
2 3
3 4
4 5
5 6
6 7
7 8
8 9
ZONE T="Time=0.0320", STRANDID=1, SOLUTIONTIME=3.200000e-02, NODES=9, ELEMENTS=8, ZONETYPE=FELINESEG, DATAPACKING=BLOCK, VARLOCATION=([10,11,12]=CELLCENTERED)
   0.000000e+00    5.000000e-01    1.000000e+00    1.500000e+00    2.000000e+00    2.000000e+00    2.000000e+00    2.000000e+00    2.000000e+00 
   0.000000e+00    0.000000e+00    0.000000e+00    0.000000e+00    0.000000e+00    5.000000e-01    1.000000e+00    1.500000e+00    2.000000e+00 
   0.000000e+00    0.000000e+00    0.000000e+00    0.000000e+00    0.000000e+00    0.000000e+00    0.000000e+00    0.000000e+00    0.000000e+00 
   0.000000e+00    1.553945e-13    3.245882e-13    5.226056e-13    7.670309e-13   -2.092079e-12    1.008345e-14    8.652725e-14   -3.728223e-14 
   0.000000e+00   -6.870232e-14   -8.934532e-13    1.846076e-12    2.168161e-11    2.355513e-11    2.752037e-11    3.392945e-11    4.335149e-11 
   0.000000e+00   -6.083704e-17   -2.415584e-14    1.495423e-15    5.910172e-13    6.167334e-13   -1.741492e-11   -6.312501e-12    4.283585e-10 
   0.000000e+00    4.810631e-13    1.075925e-12    1.925303e-12    3.230123e-12   -9.436180e-12   -6.204534e-11    2.607468e-10    1.390879e-09 
   0.000000e+00    1.257371e-14    7.930383e-14   -3.933936e-13   -1.755726e-12   -1.121063e-12   -7.515948e-13   -5.599205e-13   -5.006988e-13 
   0.000000e+00   -7.027170e-13   -1.818695e-12    2.019228e-11    3.634515e-11   -6.543156e-12   -1.326814e-12    2.949219e-13    2.148435e-13 
   1.028779e-01    1.382573e-01    9.864974e-01    1.828894e+00    3.340969e+00    2.813633e+00    1.835298e+01    3.159743e+01 