TITLE = "FEM Line Output"
VARIABLES = "X", "Y", "Z", "U", "V", "W", "RX", "RY", "RZ", "Stress", "Moment", "Torsion"
ZONE T="Time=0.0048", STRANDID=1, SOLUTIONTIME=4.762346e-03, NODES=11, ELEMENTS=10, ZONETYPE=FELINESEG, DATAPACKING=BLOCK, VARLOCATION=([10,11,12]=CELLCENTERED)
   0.000000e+00    5.000000e-01    1.000000e+00    1.500000e+00    2.000000e+00    2.500000e+00    3.000000e+00    3.500000e+00    4.000000e+00    0.000000e+00    4.000000e+00 
   2.000000e+00    2.000000e+00    2.000000e+00    2.000000e+00    2.000000e+00    2.000000e+00    2.000000e+00    2.000000e+00    2.000000e+00    0.000000e+00    0.000000e+00 
   0.000000e+00    0.000000e+00    0.000000e+00    0.000000e+00    0.000000e+00    0.000000e+00    0.000000e+00    0.000000e+00    0.000000e+00    0.000000e+00    0.000000e+00 
   0.000000e+00    0.000000e+00    0.000000e+00    0.000000e+00    0.000000e+00    0.000000e+00    0.000000e+00    0.000000e+00    0.000000e+00    0.000000e+00    0.000000e+00 
   9.440740e-07   -2.013695e-05   -4.695137e-05   -7.635929e-05   -9.171371e-05   -7.508012e-05   -4.503651e-05   -1.863489e-05    1.110711e-06    0.000000e+00    0.000000e+00 
   0.000000e+00    0.000000e+00    0.000000e+00    0.000000e+00    0.000000e+00    0.000000e+00    0.000000e+00    0.000000e+00    0.000000e+00    0.000000e+00    0.000000e+00 
   0.000000e+00    0.000000e+00    0.000000e+00    0.000000e+00    0.000000e+00    0.000000e+00    0.000000e+00    0.000000e+00    0.000000e+00    0.000000e+00    0.000000e+00 
   0.000000e+00    0.000000e+00    0.000000e+00    0.000000e+00    0.000000e+00    0.000000e+00    0.000000e+00    0.000000e+00    0.000000e+00    0.000000e+00    0.000000e+00 
  -3.954318e-05   -4.698437e-05   -5.940242e-05   -5.265164e-05    1.391877e-06    5.475755e-05    5.969644e-05    4.504736e-05    3.650051e-05    0.000000e+00    0.000000e+00 
  -2.810255e+05   -3.006078e+05   -4.696636e+05   -1.690312e+06   -1.690376e+06   -4.419950e+05   -3.447350e+05   -3.248583e+05    9.440740e+04    1.110711e+05 
   4.683664e+01    5.010030e+01    7.827570e+01    2.817130e+02    2.817237e+02    7.366436e+01    5.745468e+01    5.414197e+01    0.000000e+00    0.000000e+00 
   0.000000e+00    0.000000e+00    0.000000e+00    0.000000e+00    0.000000e+00    0.000000e+00    0.000000e+00    0.000000e+00    0.000000e+00    0.000000e+00 
1 2
2 3
3 4
4 5
5 6
6 7
7 8
8 9
10 1
11 9
ZONE T="Time=0.0098", STRANDID=1, SOLUTIONTIME=9.762346e-03, NODES=11, ELEMENTS=10, ZONETYPE=FELINESEG, DATAPACKING=BLOCK, VARLOCATION=([10,11,12]=CELLCENTERED)
   0.000000e+00    5.000000e-01    1.000000e+00    1.500000e+00    2.000000e+00    2.500000e+00    3.000000e+00    3.500000e+00    4.000000e+00    0.000000e+00    4.000000e+00 
   2.000000e+00    2.000000e+00    2.000000e+00    2.000000e+00    2.000000e+00    2.000000e+00    2.000000e+00    2.000000e+00    2.000000e+00    0.000000e+00    0.000000e+00 
   0.000000e+00    0.000000e+00    0.000000e+00    0.000000e+00    0.000000e+00    0.000000e+00    0.000000e+00    0.000000e+00    0.000000e+00    0.000000e+00    0.000000e+00 
   0.000000e+00    0.000000e+00    0.000000e+00    0.000000e+00    0.000000e+00    0.000000e+00    0.000000e+00    0.000000e+00    0.000000e+00    0.000000e+00    0.000000e+00 
  -8.906103e-07   -1.052420e-04   -2.002974e-04   -2.730663e-04   -3.030502e-04   -2.716356e-04   -1.982304e-04   -1.037042e-04   -7.558561e-07    0.000000e+00    0.000000e+00 
   0.000000e+00    0.000000e+00    0.000000e+00    0.000000e+00    0.000000e+00    0.000000e+00    0.000000e+00    0.000000e+00    0.000000e+00    0.000000e+00    0.000000e+00 
   0.000000e+00    0.000000e+00    0.000000e+00    0.000000e+00    0.000000e+00    0.000000e+00    0.000000e+00    0.000000e+00    0.000000e+00    0.000000e+00    0.000000e+00 
   0.000000e+00    0.000000e+00    0.000000e+00    0.000000e+00    0.000000e+00    0.000000e+00    0.000000e+00    0.000000e+00    0.000000e+00    0.000000e+00    0.000000e+00 
  -2.115621e-04   -2.028620e-04   -1.731583e-04   -1.111945e-04    1.579154e-06    1.134751e-04    1.732860e-04    2.007147e-04    2.084211e-04    0.000000e+00    0.000000e+00 
  -3.528865e+05   -8.461188e+05   -1.642623e+06   -2.874630e+06   -2.874114e+06   -1.607775e+06   -7.947940e+05   -3.135744e+05   -8.906103e+04   -7.558561e+04 
   5.881325e+01    1.410170e+02    2.737650e+02    4.790954e+02    4.790095e+02    2.679572e+02    1.324630e+02    5.226135e+01    0.000000e+00    0.000000e+00 
   0.000000e+00    0.000000e+00    0.000000e+00    0.000000e+00    0.000000e+00    0.000000e+00    0.000000e+00    0.000000e+00    0.000000e+00    0.000000e+00 
1 2
2 3
3 4
4 5
5 6
6 7
7 8
8 9
10 1
11 9
ZONE T="Time=0.0148", STRANDID=1, SOLUTIONTIME=1.476235e-02, NODES=11, ELEMENTS=10, ZONETYPE=FELINESEG, DATAPACKING=BLOCK, VARLOCATION=([10,11,12]=CELLCENTERED)
   0.000000e+00    5.000000e-01    1.000000e+00    1.500000e+00    2.000000e+00    2.500000e+00    3.000000e+00    3.500000e+00    4.000000e+00    0.000000e+00    4.000000e+00 
   2.000000e+00    2.000000e+00    2.000000e+00    2.000000e+00    2.000000e+00    2.000000e+00    2.000000e+00    2.000000e+00    2.000000e+00    0.000000e+00    0.000000e+00 
   0.000000e+00    0.000000e+00    0.000000e+00    0.000000e+00    0.000000e+00    0.000000e+00    0.000000e+00    0.000000e+00    0.000000e+00    0.000000e+00    0.000000e+00 
   0.000000e+00    0.000000e+00    0.000000e+00    0.000000e+00    0.000000e+00    0.000000e+00    0.000000e+00    0.000000e+00    0.000000e+00    0.000000e+00    0.000000e+00 
  -2.714241e-06   -2.213442e-04   -4.138982e-04   -5.525576e-04   -6.062891e-04   -5.523869e-04   -4.136409e-04   -2.211410e-04   -2.688295e-06    0.000000e+00    0.000000e+00 
   0.000000e+00    0.000000e+00    0.000000e+00    0.000000e+00    0.000000e+00    0.000000e+00    0.000000e+00    0.000000e+00    0.000000e+00    0.000000e+00    0.000000e+00 
   0.000000e+00    0.000000e+00    0.000000e+00    0.000000e+00    0.000000e+00    0.000000e+00    0.000000e+00    0.000000e+00    0.000000e+00    0.000000e+00    0.000000e+00 
   0.000000e+00    0.000000e+00    0.000000e+00    0.000000e+00    0.000000e+00    0.000000e+00    0.000000e+00    0.000000e+00    0.000000e+00    0.000000e+00    0.000000e+00 
  -4.458281e-04   -4.200558e-04   -3.409387e-04   -2.033874e-04    1.849154e-07    2.036698e-04    3.409810e-04    4.197992e-04    4.454260e-04    0.000000e+00    0.000000e+00 
  -1.033581e+06   -2.135597e+06   -3.369650e+06   -4.774749e+06   -4.774838e+06   -3.366154e+06   -2.129485e+06   -1.027664e+06   -2.714241e+05   -2.688295e+05 
   1.722601e+02    3.559257e+02    5.615971e+02    7.957756e+02    7.957904e+02    5.610145e+02    3.549070e+02    1.712740e+02    0.000000e+00    0.000000e+00 
   0.000000e+00    0.000000e+00    0.000000e+00    0.000000e+00    0.000000e+00    0.000000e+00    0.000000e+00    0.000000e+00    0.000000e+00    0.000000e+00 
1 2
2 3
3 4
4 5
5 6
6 7
7 8
8 9
10 1
11 9
ZONE T="Time=0.0198", STRANDID=1, SOLUTIONTIME=1.976235e-02, NODES=11, ELEMENTS=10, ZONETYPE=FELINESEG, DATAPACKING=BLOCK, VARLOCATION=([10,11,12]=CELLCENTERED)
   0.000000e+00    5.000000e-01    1.000000e+00    1.500000e+00    2.000000e+00    2.500000e+00    3.000000e+00    3.500000e+00    4.000000e+00    0.000000e+00    4.000000e+00 
   2.000000e+00    2.000000e+00    2.000000e+00    2.000000e+00    2.000000e+00    2.000000e+00    2.000000e+00    2.000000e+00    2.000000e+00    0.000000e+00    0.000000e+00 
   0.000000e+00    0.000000e+00    0.000000e+00    0.000000e+00    0.000000e+00    0.000000e+00    0.000000e+00    0.000000e+00    0.000000e+00    0.000000e+00    0.000000e+00 
   0.000000e+00    0.000000e+00    0.000000e+00    0.000000e+00    0.000000e+00    0.000000e+00    0.000000e+00    0.000000e+00    0.000000e+00    0.000000e+00    0.000000e+00 
  -4.801451e-06   -3.483886e-04   -6.469959e-04   -8.567127e-04   -9.356607e-04   -8.571911e-04   -6.476873e-04   -3.489026e-04   -4.845736e-06    0.000000e+00    0.000000e+00 
   0.000000e+00    0.000000e+00    0.000000e+00    0.000000e+00    0.000000e+00    0.000000e+00    0.000000e+00    0.000000e+00    0.000000e+00    0.000000e+00    0.000000e+00 
   0.000000e+00    0.000000e+00    0.000000e+00    0.000000e+00    0.000000e+00    0.000000e+00    0.000000e+00    0.000000e+00    0.000000e+00    0.000000e+00    0.000000e+00 
   0.000000e+00    0.000000e+00    0.000000e+00    0.000000e+00    0.000000e+00    0.000000e+00    0.000000e+00    0.000000e+00    0.000000e+00    0.000000e+00    0.000000e+00 
  -7.022416e-04   -6.570793e-04   -5.226798e-04   -3.022039e-04   -5.275989e-07    3.014398e-04    5.226375e-04    6.577990e-04    7.032931e-04    0.000000e+00    0.000000e+00 
  -1.804861e+06   -3.568130e+06   -5.248421e+06   -6.817030e+06   -6.817175e+06   -5.260130e+06   -3.585298e+06   -1.817968e+06   -4.801451e+05   -4.845736e+05 
   3.008042e+02    5.946764e+02    8.747194e+02    1.136149e+03    1.136173e+03    8.766708e+02    5.975378e+02    3.029887e+02    0.000000e+00    0.000000e+00 
   0.000000e+00    0.000000e+00    0.000000e+00    0.000000e+00    0.000000e+00    0.000000e+00    0.000000e+00    0.000000e+00    0.000000e+00    0.000000e+00 
1 2
2 3
3 4
4 5
5 6
6 7
7 8
8 9
10 1
11 9
ZONE T="Time=0.0248", STRANDID=1, SOLUTIONTIME=2.476235e-02, NODES=11, ELEMENTS=10, ZONETYPE=FELINESEG, DATAPACKING=BLOCK, VARLOCATION=([10,11,12]=CELLCENTERED)
   0.000000e+00    5.000000e-01    1.000000e+00    1.500000e+00    2.000000e+00    2.500000e+00    3.000000e+00    3.500000e+00    4.000000e+00    0.000000e+00    4.000000e+00 
   2.000000e+00    2.000000e+00    2.000000e+00    2.000000e+00    2.000000e+00    2.000000e+00    2.000000e+00    2.000000e+00    2.000000e+00    0.000000e+00    0.000000e+00 
   0.000000e+00    0.000000e+00    0.000000e+00    0.000000e+00    0.000000e+00    0.000000e+00    0.000000e+00    0.000000e+00    0.000000e+00    0.000000e+00    0.000000e+00 
   0.000000e+00    0.000000e+00    0.000000e+00    0.000000e+00    0.000000e+00    0.000000e+00    0.000000e+00    0.000000e+00    0.000000e+00    0.000000e+00    0.000000e+00 
  -6.657832e-06   -4.607374e-04   -8.530348e-04   -1.125376e-03   -1.226346e-03   -1.125943e-03   -8.538716e-04   -4.613795e-04   -6.727558e-06    0.000000e+00    0.000000e+00 
   0.000000e+00    0.000000e+00    0.000000e+00    0.000000e+00    0.000000e+00    0.000000e+00    0.000000e+00    0.000000e+00    0.000000e+00    0.000000e+00    0.000000e+00 
   0.000000e+00    0.000000e+00    0.000000e+00    0.000000e+00    0.000000e+00    0.000000e+00    0.000000e+00    0.000000e+00    0.000000e+00    0.000000e+00    0.000000e+00 
   0.000000e+00    0.000000e+00    0.000000e+00    0.000000e+00    0.000000e+00    0.000000e+00    0.000000e+00    0.000000e+00    0.000000e+00    0.000000e+00    0.000000e+00 
  -9.290054e-04   -8.666027e-04   -6.830867e-04   -3.890652e-04   -6.196208e-07    3.881442e-04    6.829912e-04    8.674540e-04    9.302960e-04    0.000000e+00    0.000000e+00 
  -2.490608e+06   -4.840243e+06   -6.913048e+06   -8.620548e+06   -8.620485e+06   -6.925750e+06   -4.860564e+06   -2.508246e+06   -6.657832e+05   -6.727558e+05 
   4.150931e+02    8.066910e+02    1.152152e+03    1.436729e+03    1.436719e+03    1.154269e+03    8.100778e+02    4.180326e+02    0.000000e+00    0.000000e+00 
   0.000000e+00    0.000000e+00    0.000000e+00    0.000000e+00    0.000000e+00    0.000000e+00    0.000000e+00    0.000000e+00    0.000000e+00    0.000000e+00 
1 2
2 3
3 4
4 5
5 6
6 7
7 8
8 9
10 1
11 9
ZONE T="Time=0.0298", STRANDID=1, SOLUTIONTIME=2.976235e-02, NODES=11, ELEMENTS=10, ZONETYPE=FELINESEG, DATAPACKING=BLOCK, VARLOCATION=([10,11,12]=CELLCENTERED)
   0.000000e+00    5.000000e-01    1.000000e+00    1.500000e+00    2.000000e+00    2.500000e+00    3.000000e+00    3.500000e+00    4.000000e+00    0.000000e+00    4.000000e+00 
   2.000000e+00    2.000000e+00    2.000000e+00    2.000000e+00    2.000000e+00    2.000000e+00    2.000000e+00    2.000000e+00    2.000000e+00    0.000000e+00    0.000000e+00 
   0.000000e+00    0.000000e+00    0.000000e+00    0.000000e+00    0.000000e+00    0.000000e+00    0.000000e+00    0.000000e+00    0.000000e+00    0.000000e+00    0.000000e+00 
   0.000000e+00    0.000000e+00    0.000000e+00    0.000000e+00    0.000000e+00    0.000000e+00    0.000000e+00    0.000000e+00    0.000000e+00    0.000000e+00    0.000000e+00 
  -7.901069e-06   -5.366437e-04   -9.923320e-04   -1.307171e-03   -1.423238e-03   -1.308153e-03   -9.937734e-04   -5.377414e-04   -8.014504e-06    0.000000e+00    0.000000e+00 
   0.000000e+00    0.000000e+00    0.000000e+00    0.000000e+00    0.000000e+00    0.000000e+00    0.000000e+00    0.000000e+00    0.000000e+00    0.000000e+00    0.000000e+00 
   0.000000e+00    0.000000e+00    0.000000e+00    0.000000e+00    0.000000e+00    0.000000e+00    0.000000e+00    0.000000e+00    0.000000e+00    0.000000e+00    0.000000e+00 
   0.000000e+00    0.000000e+00    0.000000e+00    0.000000e+00    0.000000e+00    0.000000e+00    0.000000e+00    0.000000e+00    0.000000e+00    0.000000e+00    0.000000e+00 
  -1.082204e-03   -1.008246e-03   -7.917496e-04   -4.481896e-04   -1.075077e-06    4.466017e-04    7.916035e-04    1.009720e-03    1.084420e-03    0.000000e+00    0.000000e+00 
  -2.950334e+06   -5.695274e+06   -8.036080e+06   -9.842322e+06   -9.842311e+06   -8.058565e+06   -5.730464e+06   -2.979980e+06   -7.901069e+05   -8.014504e+05 
   4.917125e+02    9.491933e+02    1.339320e+03    1.640354e+03    1.640352e+03    1.343067e+03    9.550582e+02    4.966533e+02    0.000000e+00    0.000000e+00 
   0.000000e+00    0.000000e+00    0.000000e+00    0.000000e+00    0.000000e+00    0.000000e+00    0.000000e+00    0.000000e+00    0.000000e+00    0.000000e+00 
1 2
2 3
3 4
4 5
5 6
6 7
7 8
8 9
10 1
11 9
ZONE T="Time=0.0348", STRANDID=1, SOLUTIONTIME=3.476235e-02, NODES=11, ELEMENTS=10, ZONETYPE=FELINESEG, DATAPACKING=BLOCK, VARLOCATION=([10,11,12]=CELLCENTERED)
   0.000000e+00    5.000000e-01    1.000000e+00    1.500000e+00    2.000000e+00    2.500000e+00    3.000000e+00    3.500000e+00    4.000000e+00    0.000000e+00    4.000000e+00 
   2.000000e+00    2.000000e+00    2.000000e+00    2.000000e+00    2.000000e+00    2.000000e+00    2.000000e+00    2.000000e+00    2.000000e+00    0.000000e+00    0.000000e+00 
   0.000000e+00    0.000000e+00    0.000000e+00    0.000000e+00    0.000000e+00    0.000000e+00    0.000000e+00    0.000000e+00    0.000000e+00    0.000000e+00    0.000000e+00 
   0.000000e+00    0.000000e+00    0.000000e+00    0.000000e+00    0.000000e+00    0.000000e+00    0.000000e+00    0.000000e+00    0.000000e+00    0.000000e+00    0.000000e+00 
  -8.327463e-06   -5.629443e-04   -1.040635e-03   -1.370280e-03   -1.491677e-03   -1.371574e-03   -1.042527e-03   -5.643761e-04   -8.468759e-06    0.000000e+00    0.000000e+00 
   0.000000e+00    0.000000e+00    0.000000e+00    0.000000e+00    0.000000e+00    0.000000e+00    0.000000e+00    0.000000e+00    0.000000e+00    0.000000e+00    0.000000e+00 
   0.000000e+00    0.000000e+00    0.000000e+00    0.000000e+00    0.000000e+00    0.000000e+00    0.000000e+00    0.000000e+00    0.000000e+00    0.000000e+00    0.000000e+00 
   0.000000e+00    0.000000e+00    0.000000e+00    0.000000e+00    0.000000e+00    0.000000e+00    0.000000e+00    0.000000e+00    0.000000e+00    0.000000e+00    0.000000e+00 
  -1.135281e-03   -1.057357e-03   -8.295211e-04   -4.688700e-04   -1.420482e-06    4.667833e-04    8.293502e-04    1.059303e-03    1.138182e-03    0.000000e+00    0.000000e+00 
  -3.108148e+06   -5.989561e+06   -8.424236e+06   -1.026683e+07   -1.026693e+07   -8.454451e+06   -6.035983e+06   -3.146236e+06   -8.327463e+05   -8.468759e+05 
   5.180143e+02    9.982402e+02    1.404011e+03    1.711104e+03    1.711121e+03    1.409047e+03    1.005977e+03    5.243621e+02    0.000000e+00    0.000000e+00 
   0.000000e+00    0.000000e+00    0.000000e+00    0.000000e+00    0.000000e+00    0.000000e+00    0.000000e+00    0.000000e+00    0.000000e+00    0.000000e+00 
1 2
2 3
3 4
4 5
5 6
6 7
7 8
8 9
10 1
11 9
ZONE T="Time=0.0398", STRANDID=1, SOLUTIONTIME=3.976235e-02, NODES=11, ELEMENTS=10, ZONETYPE=FELINESEG, DATAPACKING=BLOCK, VARLOCATION=([10,11,12]=CELLCENTERED)
   0.000000e+00    5.000000e-01    1.000000e+00    1.500000e+00    2.000000e+00    2.500000e+00    3.000000e+00    3.500000e+00    4.000000e+00    0.000000e+00    4.000000e+00 
   2.000000e+00    2.000000e+00    2.000000e+00    2.000000e+00    2.000000e+00    2.000000e+00    2.000000e+00    2.000000e+00    2.000000e+00    0.000000e+00    0.000000e+00 
   0.000000e+00    0.000000e+00    0.000000e+00    0.000000e+00    0.000000e+00    0.000000e+00    0.000000e+00    0.000000e+00    0.000000e+00    0.000000e+00    0.000000e+00 
   0.000000e+00    0.000000e+00    0.000000e+00    0.000000e+00    0.000000e+00    0.000000e+00    0.000000e+00    0.000000e+00    0.000000e+00    0.000000e+00    0.000000e+00 
  -7.898738e-06   -5.366638e-04   -9.923918e-04   -1.307291e-03   -1.423421e-03   -1.308373e-03   -9.939763e-04   -5.378659e-04   -8.019701e-06    0.000000e+00    0.000000e+00 
   0.000000e+00    0.000000e+00    0.000000e+00    0.000000e+00    0.000000e+00    0.000000e+00    0.000000e+00    0.000000e+00    0.000000e+00    0.000000e+00    0.000000e+00 
   0.000000e+00    0.000000e+00    0.000000e+00    0.000000e+00    0.000000e+00    0.000000e+00    0.000000e+00    0.000000e+00    0.000000e+00    0.000000e+00    0.000000e+00 
   0.000000e+00    0.000000e+00    0.000000e+00    0.000000e+00    0.000000e+00    0.000000e+00    0.000000e+00    0.000000e+00    0.000000e+00    0.000000e+00    0.000000e+00 
  -1.082242e-03   -1.008304e-03   -7.918515e-04   -4.483216e-04   -1.186165e-06    4.465752e-04    7.917011e-04    1.009929e-03    1.084673e-03    0.000000e+00    0.000000e+00 
  -2.949563e+06   -5.694322e+06   -8.035825e+06   -9.843375e+06   -9.843419e+06   -8.060881e+06   -5.733112e+06   -2.981743e+06   -7.898738e+05   -8.019701e+05 
   4.915840e+02    9.490347e+02    1.339277e+03    1.640530e+03    1.640537e+03    1.343453e+03    9.554996e+02    4.969473e+02    0.000000e+00    0.000000e+00 
   0.000000e+00    0.000000e+00    0.000000e+00    0.000000e+00    0.000000e+00    0.000000e+00    0.000000e+00    0.000000e+00    0.000000e+00    0.000000e+00 
1 2
2 3
3 4
4 5
5 6
6 7
7 8
8 9
10 1
11 9
ZONE T="Time=0.0448", STRANDID=1, SOLUTIONTIME=4.476235e-02, NODES=11, ELEMENTS=10, ZONETYPE=FELINESEG, DATAPACKING=BLOCK, VARLOCATION=([10,11,12]=CELLCENTERED)
   0.000000e+00    5.000000e-01    1.000000e+00    1.500000e+00    2.000000e+00    2.500000e+00    3.000000e+00    3.500000e+00    4.000000e+00    0.000000e+00    4.000000e+00 
   2.000000e+00    2.000000e+00    2.000000e+00    2.000000e+00    2.000000e+00    2.000000e+00    2.000000e+00    2.000000e+00    2.000000e+00    0.000000e+00    0.000000e+00 
   0.000000e+00    0.000000e+00    0.000000e+00    0.000000e+00    0.000000e+00    0.000000e+00    0.000000e+00    0.000000e+00    0.000000e+00    0.000000e+00    0.000000e+00 
   0.000000e+00    0.000000e+00    0.000000e+00    0.000000e+00    0.000000e+00    0.000000e+00    0.000000e+00    0.000000e+00    0.000000e+00    0.000000e+00    0.000000e+00 
  -6.722397e-06   -4.648643e-04   -8.606332e-04   -1.135336e-03   -1.237187e-03   -1.136022e-03   -8.616401e-04   -4.656312e-04   -6.801681e-06    0.000000e+00    0.000000e+00 
   0.000000e+00    0.000000e+00    0.000000e+00    0.000000e+00    0.000000e+00    0.000000e+00    0.000000e+00    0.000000e+00    0.000000e+00    0.000000e+00    0.000000e+00 
   0.000000e+00    0.000000e+00    0.000000e+00    0.000000e+00    0.000000e+00    0.000000e+00    0.000000e+00    0.000000e+00    0.000000e+00    0.000000e+00    0.000000e+00 
   0.000000e+00    0.000000e+00    0.000000e+00    0.000000e+00    0.000000e+00    0.000000e+00    0.000000e+00    0.000000e+00    0.000000e+00    0.000000e+00    0.000000e+00 
  -9.373319e-04   -8.743265e-04   -6.890733e-04   -3.923994e-04   -7.509496e-07    3.912901e-04    6.889711e-04    8.753565e-04    9.388796e-04    0.000000e+00    0.000000e+00 
  -2.514617e+06   -4.885516e+06   -6.973672e+06   -8.687881e+06   -8.687873e+06   -6.989375e+06   -4.910097e+06   -2.535331e+06   -6.722397e+05   -6.801681e+05 
   4.190945e+02    8.142364e+02    1.162255e+03    1.447951e+03    1.447950e+03    1.164873e+03    8.183332e+02    4.225468e+02    0.000000e+00    0.000000e+00 
   0.000000e+00    0.000000e+00    0.000000e+00    0.000000e+00    0.000000e+00    0.000000e+00    0.000000e+00    0.000000e+00    0.000000e+00    0.000000e+00 
1 2
2 3
3 4
4 5
5 6
6 7
7 8
8 9
10 1
11 9
ZONE T="Time=0.0498", STRANDID=1, SOLUTIONTIME=4.976235e-02, NODES=11, ELEMENTS=10, ZONETYPE=FELINESEG, DATAPACKING=BLOCK, VARLOCATION=([10,11,12]=CELLCENTERED)
   0.000000e+00    5.000000e-01    1.000000e+00    1.500000e+00    2.000000e+00    2.500000e+00    3.000000e+00    3.500000e+00    4.000000e+00    0.000000e+00    4.000000e+00 
   2.000000e+00    2.000000e+00    2.000000e+00    2.000000e+00    2.000000e+00    2.000000e+00    2.000000e+00    2.000000e+00    2.000000e+00    0.000000e+00    0.000000e+00 
   0.000000e+00    0.000000e+00    0.000000e+00    0.000000e+00    0.000000e+00    0.000000e+00    0.000000e+00    0.000000e+00    0.000000e+00    0.000000e+00    0.000000e+00 
   0.000000e+00    0.000000e+00    0.000000e+00    0.000000e+00    0.000000e+00    0.000000e+00    0.000000e+00    0.000000e+00    0.000000e+00    0.000000e+00    0.000000e+00 
  -5.053159e-06   -3.632809e-04   -6.742603e-04   -8.921811e-04   -9.739343e-04   -8.924842e-04   -6.747040e-04   -3.636172e-04   -5.086813e-06    0.000000e+00    0.000000e+00 
   0.000000e+00    0.000000e+00    0.000000e+00    0.000000e+00    0.000000e+00    0.000000e+00    0.000000e+00    0.000000e+00    0.000000e+00    0.000000e+00    0.000000e+00 
   0.000000e+00    0.000000e+00    0.000000e+00    0.000000e+00    0.000000e+00    0.000000e+00    0.000000e+00    0.000000e+00    0.000000e+00    0.000000e+00    0.000000e+00 
   0.000000e+00    0.000000e+00    0.000000e+00    0.000000e+00    0.000000e+00    0.000000e+00    0.000000e+00    0.000000e+00    0.000000e+00    0.000000e+00    0.000000e+00 
  -7.323053e-04   -6.848100e-04   -5.437940e-04   -3.134894e-04   -3.323524e-07    3.130003e-04    5.437525e-04    6.852654e-04    7.329858e-04    0.000000e+00    0.000000e+00 
  -1.897606e+06   -3.739072e+06   -5.469975e+06   -7.054445e+06   -7.054461e+06   -5.477009e+06   -3.749938e+06   -1.906593e+06   -5.053159e+05   -5.086813e+05 
   3.162614e+02    6.231661e+02    9.116442e+02    1.175717e+03    1.175720e+03    9.128166e+02    6.249772e+02    3.177591e+02    0.000000e+00    0.000000e+00 
   0.000000e+00    0.000000e+00    0.000000e+00    0.000000e+00    0.000000e+00    0.000000e+00    0.000000e+00    0.000000e+00    0.000000e+00    0.000000e+00 
1 2
2 3
3 4
4 5
5 6
6 7
7 8
8 9
10 1
11 9
ZONE T="Time=0.0548", STRANDID=1, SOLUTIONTIME=5.476235e-02, NODES=11, ELEMENTS=10, ZONETYPE=FELINESEG, DATAPACKING=BLOCK, VARLOCATION=([10,11,12]=CELLCENTERED)
   0.000000e+00    5.000000e-01    1.000000e+00    1.500000e+00    2.000000e+00    2.500000e+00    3.000000e+00    3.500000e+00    4.000000e+00    0.000000e+00    4.000000e+00 
   2.000000e+00    2.000000e+00    2.000000e+00    2.000000e+00    2.000000e+00    2.000000e+00    2.000000e+00    2.000000e+00    2.000000e+00    0.000000e+00    0.000000e+00 
   0.000000e+00    0.000000e+00    0.000000e+00    0.000000e+00    0.000000e+00    0.000000e+00    0.000000e+00    0.000000e+00    0.000000e+00    0.000000e+00    0.000000e+00 
   0.000000e+00    0.000000e+00    0.000000e+00    0.000000e+00    0.000000e+00    0.000000e+00    0.000000e+00    0.000000e+00    0.000000e+00    0.000000e+00    0.000000e+00 
  -3.242245e-06   -2.529773e-04   -4.718750e-04   -6.281104e-04   -6.880060e-04   -6.279396e-04   -4.716236e-04   -2.527852e-04   -3.221972e-06    0.000000e+00    0.000000e+00 
   0.000000e+00    0.000000e+00    0.000000e+00    0.000000e+00    0.000000e+00    0.000000e+00    0.000000e+00    0.000000e+00    0.000000e+00    0.000000e+00    0.000000e+00 
   0.000000e+00    0.000000e+00    0.000000e+00    0.000000e+00    0.000000e+00    0.000000e+00    0.000000e+00    0.000000e+00    0.000000e+00    0.000000e+00    0.000000e+00 
   0.000000e+00    0.000000e+00    0.000000e+00    0.000000e+00    0.000000e+00    0.000000e+00    0.000000e+00    0.000000e+00    0.000000e+00    0.000000e+00    0.000000e+00 
  -5.096802e-04   -4.790126e-04   -3.859998e-04   -2.277366e-04    1.869209e-07    2.280134e-04    3.860266e-04    4.787560e-04    5.092932e-04    0.000000e+00    0.000000e+00 
  -1.228168e+06   -2.494912e+06   -3.837505e+06   -5.280338e+06   -5.280347e+06   -3.833628e+06   -2.488789e+06   -1.222944e+06   -3.242245e+05   -3.221972e+05 
   2.046906e+02    4.158104e+02    6.395714e+02    8.800387e+02    8.800402e+02    6.389253e+02    4.147898e+02    2.038199e+02    0.000000e+00    0.000000e+00 
   0.000000e+00    0.000000e+00    0.000000e+00    0.000000e+00    0.000000e+00    0.000000e+00    0.000000e+00    0.000000e+00    0.000000e+00    0.000000e+00 
1 2
2 3
3 4
4 5
5 6
6 7
7 8
8 9
10 1
11 9
ZONE T="Time=0.0598", STRANDID=1, SOLUTIONTIME=5.976235e-02, NODES=11, ELEMENTS=10, ZONETYPE=FELINESEG, DATAPACKING=BLOCK, VARLOCATION=([10,11,12]=CELLCENTERED)
   0.000000e+00    5.000000e-01    1.000000e+00    1.500000e+00    2.000000e+00    2.500000e+00    3.000000e+00    3.500000e+00    4.000000e+00    0.000000e+00    4.000000e+00 
   2.000000e+00    2.000000e+00    2.000000e+00    2.000000e+00    2.000000e+00    2.000000e+00    2.000000e+00    2.000000e+00    2.000000e+00    0.000000e+00    0.000000e+00 
   0.000000e+00    0.000000e+00    0.000000e+00    0.000000e+00    0.000000e+00    0.000000e+00    0.000000e+00    0.000000e+00    0.000000e+00    0.000000e+00    0.000000e+00 
   0.000000e+00    0.000000e+00    0.000000e+00    0.000000e+00    0.000000e+00    0.000000e+00    0.000000e+00    0.000000e+00    0.000000e+00    0.000000e+00    0.000000e+00 
  -1.648391e-06   -1.557942e-04   -2.935492e-04   -3.954070e-04   -4.360094e-04   -3.947591e-04   -2.926002e-04   -1.550745e-04   -1.576127e-06    0.000000e+00    0.000000e+00 
   0.000000e+00    0.000000e+00    0.000000e+00    0.000000e+00    0.000000e+00    0.000000e+00    0.000000e+00    0.000000e+00    0.000000e+00    0.000000e+00    0.000000e+00 
   0.000000e+00    0.000000e+00    0.000000e+00    0.000000e+00    0.000000e+00    0.000000e+00    0.000000e+00    0.000000e+00    0.000000e+00    0.000000e+00    0.000000e+00 
   0.000000e+00    0.000000e+00    0.000000e+00    0.000000e+00    0.000000e+00    0.000000e+00    0.000000e+00    0.000000e+00    0.000000e+00    0.000000e+00    0.000000e+00 
  -3.135377e-04   -2.976820e-04   -2.469303e-04   -1.521136e-04    7.106019e-07    1.531596e-04    2.470199e-04    2.967083e-04    3.120818e-04    0.000000e+00    0.000000e+00 
  -6.389090e+05   -1.399458e+06   -2.399534e+06   -3.716796e+06   -3.716767e+06   -2.384511e+06   -1.376222e+06   -6.196561e+05   -1.648391e+05   -1.576127e+05 
   1.064827e+02    2.332384e+02    3.999143e+02    6.194537e+02    6.194488e+02    3.974106e+02    2.293658e+02    1.032739e+02    0.000000e+00    0.000000e+00 
   0.000000e+00    0.000000e+00    0.000000e+00    0.000000e+00    0.000000e+00    0.000000e+00    0.000000e+00    0.000000e+00    0.000000e+00    0.000000e+00 
1 2
2 3
3 4
4 5
5 6
6 7
7 8
8 9
10 1
11 9
ZONE T="Time=0.0648", STRANDID=1, SOLUTIONTIME=6.476235e-02, NODES=11, ELEMENTS=10, ZONETYPE=FELINESEG, DATAPACKING=BLOCK, VARLOCATION=([10,11,12]=CELLCENTERED)
   0.000000e+00    5.000000e-01    1.000000e+00    1.500000e+00    2.000000e+00    2.500000e+00    3.000000e+00    3.500000e+00    4.000000e+00    0.000000e+00    4.000000e+00 
   2.000000e+00    2.000000e+00    2.000000e+00    2.000000e+00    2.000000e+00    2.000000e+00    2.000000e+00    2.000000e+00    2.000000e+00    0.000000e+00    0.000000e+00 
   0.000000e+00    0.000000e+00    0.000000e+00    0.000000e+00    0.000000e+00    0.000000e+00    0.000000e+00    0.000000e+00    0.000000e+00    0.000000e+00    0.000000e+00 
   0.000000e+00    0.000000e+00    0.000000e+00    0.000000e+00    0.000000e+00    0.000000e+00    0.000000e+00    0.000000e+00    0.000000e+00    0.000000e+00    0.000000e+00 
  -5.700647e-07   -9.009737e-05   -1.730063e-04   -2.381198e-04   -2.656984e-04   -2.371805e-04   -1.716304e-04   -8.905345e-05   -4.649946e-07    0.000000e+00    0.000000e+00 
   0.000000e+00    0.000000e+00    0.000000e+00    0.000000e+00    0.000000e+00    0.000000e+00    0.000000e+00    0.000000e+00    0.000000e+00    0.000000e+00    0.000000e+00 
   0.000000e+00    0.000000e+00    0.000000e+00    0.000000e+00    0.000000e+00    0.000000e+00    0.000000e+00    0.000000e+00    0.000000e+00    0.000000e+00    0.000000e+00 
   0.000000e+00    0.000000e+00    0.000000e+00    0.000000e+00    0.000000e+00    0.000000e+00    0.000000e+00    0.000000e+00    0.000000e+00    0.000000e+00    0.000000e+00 
  -1.809425e-04   -1.751072e-04   -1.529413e-04   -1.010285e-04    1.030043e-06    1.025451e-04    1.530719e-04    1.736957e-04    1.788311e-04    0.000000e+00    0.000000e+00 
  -2.402762e+05   -6.585470e+05   -1.427284e+06   -2.660067e+06   -2.660030e+06   -1.405528e+06   -6.248622e+05   -2.123277e+05   -5.700647e+04   -4.649946e+04 
   4.004523e+01    1.097556e+02    2.378759e+02    4.433357e+02    4.433294e+02    2.342499e+02    1.041416e+02    3.538725e+01    0.000000e+00    0.000000e+00 
   0.000000e+00    0.000000e+00    0.000000e+00    0.000000e+00    0.000000e+00    0.000000e+00    0.000000e+00    0.000000e+00    0.000000e+00    0.000000e+00 
1 2
2 3
3 4
4 5
5 6
6 7
7 8
8 9
10 1
11 9
ZONE T="Time=0.0698", STRANDID=1, SOLUTIONTIME=6.976235e-02, NODES=11, ELEMENTS=10, ZONETYPE=FELINESEG, DATAPACKING=BLOCK, VARLOCATION=([10,11,12]=CELLCENTERED)