TITLE = "FEM Line Output"
VARIABLES = "X", "Y", "Z", "U", "V", "W", "RX", "RY", "RZ", "Stress", "Moment", "Torsion"
ZONE T="Time=0.0000", STRANDID=1, SOLUTIONTIME=0.000000e+00, NODES=164, ELEMENTS=363, ZONETYPE=FELINESEG, DATAPACKING=BLOCK, VARLOCATION=([10,11,12]=CELLCENTERED)
   0.000000e+00    0.000000e+00    0.000000e+00    0.000000e+00    1.000000e+00    1.000000e+00    1.000000e+00    1.000000e+00    2.000000e+00    2.000000e+00    2.000000e+00    2.000000e+00    3.000000e+00    3.000000e+00    3.000000e+00    3.000000e+00    4.000000e+00    4.000000e+00    4.000000e+00    4.000000e+00    5.000000e+00    5.000000e+00    5.000000e+00    5.000000e+00    6.000000e+00    6.000000e+00    6.000000e+00    6.000000e+00    7.000000e+00    7.000000e+00    7.000000e+00    7.000000e+00    8.000000e+00    8.000000e+00    8.000000e+00    8.000000e+00    9.000000e+00    9.000000e+00    9.000000e+00    9.000000e+00    1.000000e+01    1.000000e+01    1.000000e+01    1.000000e+01    1.100000e+01    1.100000e+01    1.100000e+01    1.100000e+01    1.200000e+01    1.200000e+01    1.200000e+01    1.200000e+01    1.300000e+01    1.300000e+01    1.300000e+01    1.300000e+01    1.400000e+01    1.400000e+01    1.400000e+01    1.400000e+01    1.500000e+01    1.500000e+01    1.500000e+01    1.500000e+01    1.600000e+01    1.600000e+01    1.600000e+01    1.600000e+01    1.700000e+01    1.700000e+01    1.700000e+01    1.700000e+01    1.800000e+01    1.800000e+01    1.800000e+01    1.800000e+01    1.900000e+01    1.900000e+01    1.900000e+01    1.900000e+01    2.000000e+01    2.000000e+01    2.000000e+01    2.000000e+01    2.100000e+01    2.100000e+01    2.100000e+01    2.100000e+01    2.200000e+01    2.200000e+01    2.200000e+01    2.200000e+01    2.300000e+01    2.300000e+01    2.300000e+01    2.300000e+01    2.400000e+01    2.400000e+01    2.400000e+01    2.400000e+01    2.500000e+01    2.500000e+01    2.500000e+01    2.500000e+01    2.600000e+01    2.600000e+01    2.600000e+01    2.600000e+01    2.700000e+01    2.700000e+01    2.700000e+01    2.700000e+01    2.800000e+01    2.800000e+01    2.800000e+01    2.800000e+01    2.900000e+01    2.900000e+01    2.900000e+01    2.900000e+01    3.000000e+01    3.000000e+01    3.000000e+01    3.000000e+01    3.100000e+01    3.100000e+01    3.100000e+01    3.100000e+01    3.200000e+01    3.200000e+01    3.200000e+01    3.200000e+01    3.300000e+01    3.300000e+01    3.300000e+01    3.300000e+01    3.400000e+01    3.400000e+01    3.400000e+01    3.400000e+01    3.500000e+01    3.500000e+01    3.500000e+01    3.500000e+01    3.600000e+01    3.600000e+01    3.600000e+01    3.600000e+01    3.700000e+01    3.700000e+01    3.700000e+01    3.700000e+01    3.800000e+01    3.800000e+01    3.800000e+01    3.800000e+01    3.900000e+01    3.900000e+01    3.900000e+01    3.900000e+01    4.000000e+01    4.000000e+01    4.000000e+01    4.000000e+01 
   0.000000e+00    0.000000e+00    3.000000e+00    3.000000e+00    0.000000e+00    0.000000e+00    3.000000e+00    3.000000e+00    0.000000e+00    0.000000e+00    3.000000e+00    3.000000e+00    0.000000e+00    0.000000e+00    3.000000e+00    3.000000e+00    0.000000e+00    0.000000e+00    3.000000e+00    3.000000e+00    0.000000e+00    0.000000e+00    3.000000e+00    3.000000e+00    0.000000e+00    0.000000e+00    3.000000e+00    3.000000e+00    0.000000e+00    0.000000e+00    3.000000e+00    3.000000e+00    0.000000e+00    0.000000e+00    3.000000e+00    3.000000e+00    0.000000e+00    0.000000e+00    3.000000e+00    3.000000e+00    0.000000e+00    0.000000e+00    3.000000e+00    3.000000e+00    0.000000e+00    0.000000e+00    3.000000e+00    3.000000e+00    0.000000e+00    0.000000e+00    3.000000e+00    3.000000e+00    0.000000e+00    0.000000e+00    3.000000e+00    3.000000e+00    0.000000e+00    0.000000e+00    3.000000e+00    3.000000e+00    0.000000e+00    0.000000e+00    3.000000e+00    3.000000e+00    0.000000e+00    0.000000e+00    3.000000e+00    3.000000e+00    0.000000e+00    0.000000e+00    3.000000e+00    3.000000e+00    0.000000e+00    0.000000e+00    3.000000e+00    3.000000e+00    0.000000e+00    0.000000e+00    3.000000e+00    3.000000e+00    0.000000e+00    0.000000e+00    3.000000e+00    3.000000e+00    0.000000e+00    0.000000e+00    3.000000e+00    3.000000e+00    0.000000e+00    0.000000e+00    3.000000e+00    3.000000e+00    0.000000e+00    0.000000e+00    3.000000e+00    3.000000e+00    0.000000e+00    0.000000e+00    3.000000e+00    3.000000e+00    0.000000e+00    0.000000e+00    3.000000e+00    3.000000e+00    0.000000e+00    0.000000e+00    3.000000e+00    3.000000e+00    0.000000e+00    0.000000e+00    3.000000e+00    3.000000e+00    0.000000e+00    0.000000e+00    3.000000e+00    3.000000e+00    0.000000e+00    0.000000e+00    3.000000e+00    3.000000e+00    0.000000e+00    0.000000e+00    3.000000e+00    3.000000e+00    0.000000e+00    0.000000e+00    3.000000e+00    3.000000e+00    0.000000e+00    0.000000e+00    3.000000e+00    3.000000e+00    0.000000e+00    0.000000e+00    3.000000e+00    3.000000e+00    0.000000e+00    0.000000e+00    3.000000e+00    3.000000e+00    0.000000e+00    0.000000e+00    3.000000e+00    3.000000e+00    0.000000e+00    0.000000e+00    3.000000e+00    3.000000e+00    0.000000e+00    0.000000e+00    3.000000e+00    3.000000e+00    0.000000e+00    0.000000e+00    3.000000e+00    3.000000e+00    0.000000e+00    0.000000e+00    3.000000e+00    3.000000e+00    0.000000e+00    0.000000e+00    3.000000e+00    3.000000e+00 
   0.000000e+00    4.000000e+00    0.000000e+00    4.000000e+00    0.000000e+00    4.000000e+00    0.000000e+00    4.000000e+00    0.000000e+00    4.000000e+00    0.000000e+00    4.000000e+00    0.000000e+00    4.000000e+00    0.000000e+00    4.000000e+00    0.000000e+00    4.000000e+00    0.000000e+00    4.000000e+00    0.000000e+00    4.000000e+00    0.000000e+00    4.000000e+00    0.000000e+00    4.000000e+00    0.000000e+00    4.000000e+00    0.000000e+00    4.000000e+00    0.000000e+00    4.000000e+00    0.000000e+00    4.000000e+00    0.000000e+00    4.000000e+00    0.000000e+00    4.000000e+00    0.000000e+00    4.000000e+00    0.000000e+00    4.000000e+00    0.000000e+00    4.000000e+00    0.000000e+00    4.000000e+00    0.000000e+00    4.000000e+00    0.000000e+00    4.000000e+00    0.000000e+00    4.000000e+00    0.000000e+00    4.000000e+00    0.000000e+00    4.000000e+00    0.000000e+00    4.000000e+00    0.000000e+00    4.000000e+00    0.000000e+00    4.000000e+00    0.000000e+00    4.000000e+00    0.000000e+00    4.000000e+00    0.000000e+00    4.000000e+00    0.000000e+00    4.000000e+00    0.000000e+00    4.000000e+00    0.000000e+00    4.000000e+00    0.000000e+00    4.000000e+00    0.000000e+00    4.000000e+00    0.000000e+00    4.000000e+00    0.000000e+00    4.000000e+00    0.000000e+00    4.000000e+00    0.000000e+00    4.000000e+00    0.000000e+00    4.000000e+00    0.000000e+00    4.000000e+00    0.000000e+00    4.000000e+00    0.000000e+00    4.000000e+00    0.000000e+00    4.000000e+00    0.000000e+00    4.000000e+00    0.000000e+00    4.000000e+00    0.000000e+00    4.000000e+00    0.000000e+00    4.000000e+00    0.000000e+00    4.000000e+00    0.000000e+00    4.000000e+00    0.000000e+00    4.000000e+00    0.000000e+00    4.000000e+00    0.000000e+00    4.000000e+00    0.000000e+00    4.000000e+00    0.000000e+00    4.000000e+00    0.000000e+00    4.000000e+00    0.000000e+00    4.000000e+00    0.000000e+00    4.000000e+00    0.000000e+00    4.000000e+00    0.000000e+00    4.000000e+00    0.000000e+00    4.000000e+00    0.000000e+00    4.000000e+00    0.000000e+00    4.000000e+00    0.000000e+00    4.000000e+00    0.000000e+00    4.000000e+00    0.000000e+00    4.000000e+00    0.000000e+00    4.000000e+00    0.000000e+00    4.000000e+00    0.000000e+00    4.000000e+00    0.000000e+00    4.000000e+00    0.000000e+00    4.000000e+00    0.000000e+00    4.000000e+00    0.000000e+00    4.000000e+00    0.000000e+00    4.000000e+00    0.000000e+00    4.000000e+00    0.000000e+00    4.000000e+00    0.000000e+00    4.000000e+00    0.000000e+00    4.000000e+00 
   0.000000e+00    0.000000e+00    2.062097e-04    2.062097e-04    2.066116e-07    2.066116e-07    2.062097e-04    2.062097e-04    6.198347e-07    6.198347e-07    2.053833e-04    2.053833e-04    1.239669e-06    1.239669e-06    2.037304e-04    2.037304e-04    2.066116e-06    2.066116e-06    2.012511e-04    2.012511e-04    3.099174e-06    3.099174e-06    1.979453e-04    1.979453e-04    4.338843e-06    4.338843e-06    1.938131e-04    1.938131e-04    5.785124e-06    5.785124e-06    1.888544e-04    1.888544e-04    7.438017e-06    7.438017e-06    1.830692e-04    1.830692e-04    9.297521e-06    9.297521e-06    1.764577e-04    1.764577e-04    1.136364e-05    1.136364e-05    1.690197e-04    1.690197e-04    1.363636e-05    1.363636e-05    1.607552e-04    1.607552e-04    1.611570e-05    1.611570e-05    1.516643e-04    1.516643e-04    1.880165e-05    1.880165e-05    1.417469e-04    1.417469e-04    2.169421e-05    2.169421e-05    1.310031e-04    1.310031e-04    2.479337e-05    2.479337e-05    1.194329e-04    1.194329e-04    2.809909e-05    2.809909e-05    1.070362e-04    1.070362e-04    3.161103e-05    3.161103e-05    9.381340e-05    9.381340e-05    3.532713e-05    3.532713e-05    7.976564e-05    7.976564e-05    3.923430e-05    3.923430e-05    6.490124e-05    6.490124e-05    4.324960e-05    4.324960e-05    4.927253e-05    4.927253e-05    4.715677e-05    4.715677e-05    3.321136e-05    3.321136e-05    5.087287e-05    5.087287e-05    1.758265e-05    1.758265e-05    5.438481e-05    5.438481e-05    2.718255e-06    2.718255e-06    5.769052e-05    5.769052e-05   -1.132950e-05   -1.132950e-05    6.078969e-05    6.078969e-05   -2.455235e-05   -2.455235e-05    6.368225e-05    6.368225e-05   -3.694900e-05   -3.694900e-05    6.636820e-05    6.636820e-05   -4.851924e-05   -4.851924e-05    6.884753e-05    6.884753e-05   -5.926304e-05   -5.926304e-05    7.112026e-05    7.112026e-05   -6.918039e-05   -6.918039e-05    7.318638e-05    7.318638e-05   -7.827130e-05   -7.827130e-05    7.504588e-05    7.504588e-05   -8.653576e-05   -8.653576e-05    7.669877e-05    7.669877e-05   -9.397378e-05   -9.397378e-05    7.814506e-05    7.814506e-05   -1.005854e-04   -1.005854e-04    7.938472e-05    7.938472e-05   -1.063705e-04   -1.063705e-04    8.041778e-05    8.041778e-05   -1.113292e-04   -1.113292e-04    8.124423e-05    8.124423e-05   -1.154614e-04   -1.154614e-04    8.186406e-05    8.186406e-05   -1.187672e-04   -1.187672e-04    8.227729e-05    8.227729e-05   -1.212465e-04   -1.212465e-04    8.248390e-05    8.248390e-05   -1.228994e-04   -1.228994e-04    8.248390e-05    8.248390e-05   -1.237258e-04   -1.237258e-04 
   0.000000e+00    0.000000e+00    0.000000e+00    0.000000e+00   -8.488611e-05   -8.488611e-05   -7.744809e-05   -7.744809e-05   -1.694279e-04   -1.694279e-04   -1.619898e-04   -1.619898e-04   -2.532809e-04   -2.532809e-04   -2.458429e-04   -2.458429e-04   -3.361009e-04   -3.361009e-04   -3.286629e-04   -3.286629e-04   -4.175435e-04   -4.175435e-04   -4.101055e-04   -4.101055e-04   -4.972643e-04   -4.972643e-04   -4.898263e-04   -4.898263e-04   -5.749190e-04   -5.749190e-04   -5.674810e-04   -5.674810e-04   -6.501632e-04   -6.501632e-04   -6.427252e-04   -6.427252e-04   -7.226527e-04   -7.226527e-04   -7.152146e-04   -7.152146e-04   -7.920429e-04   -7.920429e-04   -7.846049e-04   -7.846049e-04   -8.579896e-04   -8.579896e-04   -8.505516e-04   -8.505516e-04   -9.201484e-04   -9.201484e-04   -9.127104e-04   -9.127104e-04   -9.781750e-04   -9.781750e-04   -9.707370e-04   -9.707370e-04   -1.031725e-03   -1.031725e-03   -1.024287e-03   -1.024287e-03   -1.080453e-03   -1.080453e-03   -1.073016e-03   -1.073016e-03   -1.124012e-03   -1.124012e-03   -1.116576e-03   -1.116576e-03   -1.162036e-03   -1.162036e-03   -1.154612e-03   -1.154612e-03   -1.194046e-03   -1.194046e-03   -1.186696e-03   -1.186696e-03   -1.218839e-03   -1.218839e-03   -1.211961e-03   -1.211961e-03   -1.230636e-03   -1.230636e-03   -1.226744e-03   -1.226744e-03   -1.218839e-03   -1.218839e-03   -1.222732e-03   -1.222732e-03   -1.194046e-03   -1.194046e-03   -1.200925e-03   -1.200925e-03   -1.162036e-03   -1.162036e-03   -1.169386e-03   -1.169386e-03   -1.124012e-03   -1.124012e-03   -1.131436e-03   -1.131436e-03   -1.080453e-03   -1.080453e-03   -1.087889e-03   -1.087889e-03   -1.031725e-03   -1.031725e-03   -1.039163e-03   -1.039163e-03   -9.781750e-04   -9.781750e-04   -9.856130e-04   -9.856130e-04   -9.201484e-04   -9.201484e-04   -9.275864e-04   -9.275864e-04   -8.579896e-04   -8.579896e-04   -8.654276e-04   -8.654276e-04   -7.920429e-04   -7.920429e-04   -7.994809e-04   -7.994809e-04   -7.226527e-04   -7.226527e-04   -7.300907e-04   -7.300907e-04   -6.501632e-04   -6.501632e-04   -6.576013e-04   -6.576013e-04   -5.749190e-04   -5.749190e-04   -5.823570e-04   -5.823570e-04   -4.972643e-04   -4.972643e-04   -5.047023e-04   -5.047023e-04   -4.175435e-04   -4.175435e-04   -4.249815e-04   -4.249815e-04   -3.361009e-04   -3.361009e-04   -3.435389e-04   -3.435389e-04   -2.532809e-04   -2.532809e-04   -2.607189e-04   -2.607189e-04   -1.694279e-04   -1.694279e-04   -1.768659e-04   -1.768659e-04   -8.488611e-05   -8.488611e-05   -9.232412e-05   -9.232412e-05    0.000000e+00    0.000000e+00   -7.438017e-06   -7.438017e-06 
   0.000000e+00    0.000000e+00    0.000000e+00    0.000000e+00   -2.409565e-18   -2.409563e-18    0.000000e+00    0.000000e+00   -5.472287e-18   -5.472290e-18    0.000000e+00    0.000000e+00   -8.936276e-18   -8.936294e-18    0.000000e+00    0.000000e+00   -1.266783e-17   -1.266785e-17    0.000000e+00    0.000000e+00   -1.657196e-17   -1.657195e-17    0.000000e+00    0.000000e+00   -2.056762e-17   -2.056762e-17    0.000000e+00    0.000000e+00   -2.458039e-17   -2.458035e-17    0.000000e+00    0.000000e+00   -2.854306e-17   -2.854300e-17    0.000000e+00    0.000000e+00   -3.239662e-17   -3.239669e-17    0.000000e+00    0.000000e+00   -3.608974e-17   -3.608982e-17    0.000000e+00    0.000000e+00   -3.957856e-17   -3.957854e-17    0.000000e+00    0.000000e+00   -4.282462e-17   -4.282457e-17    0.000000e+00    0.000000e+00   -4.579446e-17   -4.579450e-17    0.000000e+00    0.000000e+00   -4.845952e-17   -4.845941e-17    0.000000e+00    0.000000e+00   -5.079188e-17   -5.079191e-17    0.000000e+00    0.000000e+00   -5.276729e-17   -5.276744e-17    0.000000e+00    0.000000e+00   -5.436399e-17   -5.436405e-17    0.000000e+00    0.000000e+00   -5.555879e-17   -5.555877e-17    0.000000e+00    0.000000e+00   -5.633158e-17   -5.633144e-17    0.000000e+00    0.000000e+00   -5.666663e-17   -5.666666e-17    0.000000e+00    0.000000e+00   -5.655497e-17   -5.655492e-17    0.000000e+00    0.000000e+00   -5.599647e-17   -5.599628e-17    0.000000e+00    0.000000e+00   -5.500531e-17   -5.500522e-17    0.000000e+00    0.000000e+00   -5.360876e-17   -5.360918e-17    0.000000e+00    0.000000e+00   -5.183831e-17   -5.183865e-17    0.000000e+00    0.000000e+00   -4.972515e-17   -4.972497e-17    0.000000e+00    0.000000e+00   -4.730611e-17   -4.730577e-17    0.000000e+00    0.000000e+00   -4.461933e-17   -4.461876e-17    0.000000e+00    0.000000e+00   -4.169321e-17   -4.169321e-17    0.000000e+00    0.000000e+00   -3.855170e-17   -3.855265e-17    0.000000e+00    0.000000e+00   -3.522233e-17   -3.522264e-17    0.000000e+00    0.000000e+00   -3.173551e-17   -3.173554e-17    0.000000e+00    0.000000e+00   -2.811855e-17   -2.811838e-17    0.000000e+00    0.000000e+00   -2.439333e-17   -2.439299e-17    0.000000e+00    0.000000e+00   -2.057568e-17   -2.057605e-17    0.000000e+00    0.000000e+00   -1.668198e-17   -1.668256e-17    0.000000e+00    0.000000e+00   -1.272244e-17   -1.272267e-17    0.000000e+00    0.000000e+00   -8.690939e-18   -8.690101e-18    0.000000e+00    0.000000e+00   -4.527311e-18   -4.527155e-18    0.000000e+00    0.000000e+00    0.000000e+00    0.000000e+00    0.000000e+00    0.000000e+00 
  -1.440674e-18   -1.440407e-18    0.000000e+00    0.000000e+00   -1.827868e-17   -1.827737e-17    0.000000e+00    0.000000e+00   -3.651887e-17   -3.651757e-17    0.000000e+00    0.000000e+00   -5.482424e-17   -5.484196e-17    0.000000e+00    0.000000e+00   -7.285293e-17   -7.290659e-17    0.000000e+00    0.000000e+00   -9.046555e-17   -9.047162e-17    0.000000e+00    0.000000e+00   -1.075142e-16   -1.075181e-16    0.000000e+00    0.000000e+00   -1.238152e-16   -1.237255e-16    0.000000e+00    0.000000e+00   -1.386737e-16   -1.387049e-16    0.000000e+00    0.000000e+00   -1.522572e-16   -1.522521e-16    0.000000e+00    0.000000e+00   -1.645264e-16   -1.645756e-16    0.000000e+00    0.000000e+00   -1.754411e-16   -1.754710e-16    0.000000e+00    0.000000e+00   -1.849062e-16   -1.848747e-16    0.000000e+00    0.000000e+00   -1.930523e-16   -1.928382e-16    0.000000e+00    0.000000e+00   -2.001004e-16   -2.000604e-16    0.000000e+00    0.000000e+00   -2.061589e-16   -2.061566e-16    0.000000e+00    0.000000e+00   -2.109641e-16   -2.109265e-16    0.000000e+00    0.000000e+00   -2.144062e-16   -2.143906e-16    0.000000e+00    0.000000e+00   -2.169247e-16   -2.170178e-16    0.000000e+00    0.000000e+00   -2.181229e-16   -2.183864e-16    0.000000e+00    0.000000e+00   -2.181752e-16   -2.178837e-16    0.000000e+00    0.000000e+00   -2.161434e-16   -2.160784e-16    0.000000e+00    0.000000e+00   -2.122426e-16   -2.121871e-16    0.000000e+00    0.000000e+00   -2.057110e-16   -2.056964e-16    0.000000e+00    0.000000e+00   -1.977671e-16   -1.978179e-16    0.000000e+00    0.000000e+00   -1.887807e-16   -1.889772e-16    0.000000e+00    0.000000e+00   -1.789998e-16   -1.793315e-16    0.000000e+00    0.000000e+00   -1.683169e-16   -1.683110e-16    0.000000e+00    0.000000e+00   -1.567527e-16   -1.567321e-16    0.000000e+00    0.000000e+00   -1.451382e-16   -1.451944e-16    0.000000e+00    0.000000e+00   -1.333804e-16   -1.333891e-16    0.000000e+00    0.000000e+00   -1.210353e-16   -1.209891e-16    0.000000e+00    0.000000e+00   -1.080749e-16   -1.077778e-16    0.000000e+00    0.000000e+00   -9.464208e-17   -9.457383e-17    0.000000e+00    0.000000e+00   -8.147049e-17   -8.148123e-17    0.000000e+00    0.000000e+00   -6.828239e-17   -6.837793e-17    0.000000e+00    0.000000e+00   -5.493196e-17   -5.498337e-17    0.000000e+00    0.000000e+00   -4.131260e-17   -4.131269e-17    0.000000e+00    0.000000e+00   -2.759022e-17   -2.759024e-17    0.000000e+00    0.000000e+00   -1.386436e-17   -1.386073e-17    0.000000e+00    0.000000e+00   -1.092916e-18   -1.092173e-18    0.000000e+00    0.000000e+00 
   1.707932e-18    1.707931e-18    0.000000e+00    0.000000e+00    2.531880e-18    2.531878e-18    0.000000e+00    0.000000e+00    3.014242e-18    3.014264e-18    0.000000e+00    0.000000e+00    3.334423e-18    3.334430e-18    0.000000e+00    0.000000e+00    3.549428e-18    3.549315e-18    0.000000e+00    0.000000e+00    3.679593e-18    3.679475e-18    0.000000e+00    0.000000e+00    3.732336e-18    3.732460e-18    0.000000e+00    0.000000e+00    3.713798e-18    3.713756e-18    0.000000e+00    0.000000e+00    3.632563e-18    3.632428e-18    0.000000e+00    0.000000e+00    3.495417e-18    3.496129e-18    0.000000e+00    0.000000e+00    3.311673e-18    3.311112e-18    0.000000e+00    0.000000e+00    3.087034e-18    3.086803e-18    0.000000e+00    0.000000e+00    2.825514e-18    2.825766e-18    0.000000e+00    0.000000e+00    2.534446e-18    2.534600e-18    0.000000e+00    0.000000e+00    2.215705e-18    2.215629e-18    0.000000e+00    0.000000e+00    1.868747e-18    1.870147e-18    0.000000e+00    0.000000e+00    1.502037e-18    1.501596e-18    0.000000e+00    0.000000e+00    1.111717e-18    1.111569e-18    0.000000e+00    0.000000e+00    6.985986e-19    6.976758e-19    0.000000e+00    0.000000e+00    2.676365e-19    2.678464e-19    0.000000e+00    0.000000e+00   -1.767361e-19   -1.768345e-19    0.000000e+00    0.000000e+00   -6.257122e-19   -6.266944e-19    0.000000e+00    0.000000e+00   -1.070173e-18   -1.070500e-18    0.000000e+00    0.000000e+00   -1.491582e-18   -1.489429e-18    0.000000e+00    0.000000e+00   -1.880348e-18   -1.880238e-18    0.000000e+00    0.000000e+00   -2.238192e-18   -2.239557e-18    0.000000e+00    0.000000e+00   -2.564776e-18   -2.567516e-18    0.000000e+00    0.000000e+00   -2.850459e-18   -2.850957e-18    0.000000e+00    0.000000e+00   -3.101356e-18   -3.102196e-18    0.000000e+00    0.000000e+00   -3.330740e-18   -3.325851e-18    0.000000e+00    0.000000e+00   -3.531650e-18   -3.532246e-18    0.000000e+00    0.000000e+00   -3.703822e-18   -3.705567e-18    0.000000e+00    0.000000e+00   -3.847731e-18   -3.847260e-18    0.000000e+00    0.000000e+00   -3.964029e-18   -3.965513e-18    0.000000e+00    0.000000e+00   -4.065201e-18   -4.063242e-18    0.000000e+00    0.000000e+00   -4.149830e-18   -4.149490e-18    0.000000e+00    0.000000e+00   -4.217225e-18   -4.217348e-18    0.000000e+00    0.000000e+00   -4.279896e-18   -4.279955e-18    0.000000e+00    0.000000e+00   -4.361708e-18   -4.363308e-18    0.000000e+00    0.000000e+00   -4.546474e-18   -4.544882e-18    0.000000e+00    0.000000e+00   -5.089173e-18   -5.091295e-18    0.000000e+00    0.000000e+00 
  -8.494350e-05   -8.494350e-05    0.000000e+00    0.000000e+00   -8.477132e-05   -8.477132e-05    0.000000e+00    0.000000e+00   -8.425479e-05   -8.425479e-05    0.000000e+00    0.000000e+00   -8.339391e-05   -8.339391e-05    0.000000e+00    0.000000e+00   -8.218868e-05   -8.218868e-05    0.000000e+00    0.000000e+00   -8.063909e-05   -8.063909e-05    0.000000e+00    0.000000e+00   -7.874515e-05   -7.874515e-05    0.000000e+00    0.000000e+00   -7.650686e-05   -7.650686e-05    0.000000e+00    0.000000e+00   -7.392422e-05   -7.392422e-05    0.000000e+00    0.000000e+00   -7.099722e-05   -7.099722e-05    0.000000e+00    0.000000e+00   -6.772587e-05   -6.772587e-05    0.000000e+00    0.000000e+00   -6.411016e-05   -6.411016e-05    0.000000e+00    0.000000e+00   -6.015010e-05   -6.015010e-05    0.000000e+00    0.000000e+00   -5.584566e-05   -5.584566e-05    0.000000e+00    0.000000e+00   -5.119670e-05   -5.119670e-05    0.000000e+00    0.000000e+00   -4.620226e-05   -4.620226e-05    0.000000e+00    0.000000e+00   -4.085642e-05   -4.085642e-05    0.000000e+00    0.000000e+00   -3.512150e-05   -3.512150e-05    0.000000e+00    0.000000e+00   -2.875860e-05   -2.875860e-05    0.000000e+00    0.000000e+00   -2.025297e-05   -2.025297e-05    0.000000e+00    0.000000e+00    2.875934e-18   -1.618343e-18    0.000000e+00    0.000000e+00    2.025297e-05    2.025297e-05    0.000000e+00    0.000000e+00    2.875860e-05    2.875860e-05    0.000000e+00    0.000000e+00    3.512150e-05    3.512150e-05    0.000000e+00    0.000000e+00    4.085642e-05    4.085642e-05    0.000000e+00    0.000000e+00    4.620226e-05    4.620226e-05    0.000000e+00    0.000000e+00    5.119670e-05    5.119670e-05    0.000000e+00    0.000000e+00    5.584566e-05    5.584566e-05    0.000000e+00    0.000000e+00    6.015010e-05    6.015010e-05    0.000000e+00    0.000000e+00    6.411016e-05    6.411016e-05    0.000000e+00    0.000000e+00    6.772587e-05    6.772587e-05    0.000000e+00    0.000000e+00    7.099722e-05    7.099722e-05    0.000000e+00    0.000000e+00    7.392422e-05    7.392422e-05    0.000000e+00    0.000000e+00    7.650686e-05    7.650686e-05    0.000000e+00    0.000000e+00    7.874515e-05    7.874515e-05    0.000000e+00    0.000000e+00    8.063909e-05    8.063909e-05    0.000000e+00    0.000000e+00    8.218868e-05    8.218868e-05    0.000000e+00    0.000000e+00    8.339391e-05    8.339391e-05    0.000000e+00    0.000000e+00    8.425479e-05    8.425479e-05    0.000000e+00    0.000000e+00    8.477132e-05    8.477132e-05    0.000000e+00    0.000000e+00    8.494350e-05    8.494350e-05    0.000000e+00    0.000000e+00 
   5.593196e+04    5.593196e+04    1.118639e+05    1.118639e+05    1.677959e+05    1.677959e+05    2.237278e+05    2.237278e+05    2.796598e+05    2.796598e+05    3.355917e+05    3.355917e+05    3.915237e+05    3.915237e+05    4.474557e+05    4.474557e+05    5.033876e+05    5.033876e+05    5.593196e+05    5.593196e+05    6.152516e+05    6.152516e+05    6.711839e+05    6.711839e+05    7.271178e+05    7.271178e+05    7.830623e+05    7.830623e+05    8.390739e+05    8.390739e+05    8.955107e+05    8.955107e+05    9.546439e+05    9.546439e+05    1.030874e+06    1.030874e+06    1.215508e+06    1.215508e+06    2.087508e+06    2.087508e+06    2.065885e+06    2.065885e+06    1.177293e+06    1.177293e+06    9.900412e+05    9.900412e+05    9.133988e+05    9.133988e+05    8.542006e+05    8.542006e+05    7.977535e+05    7.977535e+05    7.417403e+05    7.417403e+05    6.857955e+05    6.857955e+05    6.298616e+05    6.298616e+05    5.739293e+05    5.739293e+05    5.179973e+05    5.179973e+05    4.620653e+05    4.620653e+05    4.061334e+05    4.061334e+05    3.502014e+05    3.502014e+05    2.942694e+05    2.942694e+05    2.383375e+05    2.383375e+05    1.824055e+05    1.824055e+05    1.264736e+05    1.264736e+05    7.054160e+04    7.054160e+04    1.460964e+04    1.460964e+04    2.003704e-07    1.407098e-07    1.409688e-07    1.443165e-07    1.452377e-07    1.466432e-07    1.492668e-07    1.523155e-07    1.519735e-07    1.530171e-07    1.581345e-07    1.537315e-07    1.537723e-07    1.504751e-07    1.553700e-07    1.541717e-07    1.534189e-07    1.521242e-07    1.502355e-07    1.652817e-07    1.639815e-07    1.614158e-07    1.650044e-07    1.572825e-07    1.530084e-07    1.582381e-07    1.568039e-07    1.515453e-07    1.500720e-07    1.494711e-07    1.509965e-07    1.511690e-07    1.587970e-07    1.490475e-07    1.492627e-07    1.510898e-07    1.485121e-07    1.471937e-07    1.436650e-07    1.378724e-07    1.668869e-07   -5.421011e-09   -5.421011e-09   -5.226905e+05   -5.226905e+05   -1.652893e+05   -1.652893e+05   -5.226905e+05   -5.226905e+05   -3.305785e+05   -3.305785e+05   -5.226905e+05   -5.226905e+05   -4.958678e+05   -4.958678e+05   -5.226905e+05   -5.226905e+05   -6.611570e+05   -6.611570e+05   -5.226905e+05   -5.226905e+05   -8.264463e+05   -8.264463e+05   -5.226905e+05   -5.226905e+05   -9.917355e+05   -9.917355e+05   -5.226905e+05   -5.226905e+05   -1.157025e+06   -1.157025e+06   -5.226905e+05   -5.226905e+05   -1.322314e+06   -1.322314e+06   -5.226905e+05   -5.226905e+05   -1.487603e+06   -1.487603e+06   -5.226905e+05   -5.226905e+05   -1.652893e+06   -1.652893e+06   -5.226905e+05   -5.226905e+05   -1.818182e+06   -1.818182e+06   -5.226904e+05   -5.226904e+05   -1.983471e+06   -1.983471e+06   -5.226899e+05   -5.226899e+05   -2.148760e+06   -2.148760e+06   -5.226867e+05   -5.226867e+05   -2.314048e+06   -2.314048e+06   -5.226662e+05   -5.226662e+05   -2.479330e+06   -2.479330e+06   -5.225364e+05   -5.225364e+05   -2.644570e+06   -2.644570e+06   -5.217131e+05   -5.217131e+05   -2.809550e+06   -2.809550e+06   -5.164928e+05   -5.164928e+05   -2.972880e+06   -2.972880e+06   -4.833926e+05   -4.833926e+05   -3.125742e+06   -3.125742e+06   -2.735130e+05   -2.735130e+05   -3.212234e+06   -3.212234e+06    2.735130e+05    2.735130e+05   -3.125742e+06   -3.125742e+06    4.833926e+05    4.833926e+05   -2.972880e+06   -2.972880e+06    5.164928e+05    5.164928e+05   -2.809550e+06   -2.809550e+06    5.217131e+05    5.217131e+05   -2.644570e+06   -2.644570e+06    5.225364e+05    5.225364e+05   -2.479330e+06   -2.479330e+06    5.226662e+05    5.226662e+05   -2.314048e+06   -2.314048e+06    5.226867e+05    5.226867e+05   -2.148760e+06   -2.148760e+06    5.226899e+05    5.226899e+05   -1.983471e+06   -1.983471e+06    5.226904e+05    5.226904e+05   -1.818182e+06   -1.818182e+06    5.226905e+05    5.226905e+05   -1.652893e+06   -1.652893e+06    5.226905e+05    5.226905e+05   -1.487603e+06   -1.487603e+06    5.226905e+05    5.226905e+05   -1.322314e+06   -1.322314e+06    5.226905e+05    5.226905e+05   -1.157025e+06   -1.157025e+06    5.226905e+05    5.226905e+05   -9.917355e+05   -9.917355e+05    5.226905e+05    5.226905e+05   -8.264463e+05   -8.264463e+05    5.226905e+05    5.226905e+05   -6.611570e+05   -6.611570e+05    5.226905e+05    5.226905e+05   -4.958678e+05   -4.958678e+05    5.226905e+05    5.226905e+05   -3.305785e+05   -3.305785e+05    5.226905e+05    5.226905e+05   -1.652893e+05   -1.652893e+05    5.226905e+05    5.226905e+05    0.000000e+00    0.000000e+00    4.958678e+05    4.958678e+05    4.958678e+05    4.958678e+05    4.958678e+05    4.958678e+05    4.958678e+05    4.958678e+05    4.958678e+05    4.958678e+05    4.958678e+05    4.958678e+05    4.958678e+05    4.958678e+05    4.958678e+05    4.958678e+05    4.958678e+05    4.958678e+05    4.958678e+05    4.958678e+05    4.958678e+05    4.958678e+05    4.958677e+05    4.958677e+05    4.958672e+05    4.958672e+05    4.958641e+05    4.958641e+05    4.958447e+05    4.958447e+05    4.957215e+05    4.957215e+05    4.949405e+05    4.949405e+05    4.899881e+05    4.899881e+05    4.585865e+05    4.585865e+05    2.594772e+05    2.594772e+05   -2.594772e+05   -2.594772e+05   -4.585865e+05   -4.585865e+05   -4.899881e+05   -4.899881e+05   -4.949405e+05   -4.949405e+05   -4.957215e+05   -4.957215e+05   -4.958447e+05   -4.958447e+05   -4.958641e+05   -4.958641e+05   -4.958672e+05   -4.958672e+05   -4.958677e+05   -4.958677e+05   -4.958678e+05   -4.958678e+05   -4.958678e+05   -4.958678e+05   -4.958678e+05   -4.958678e+05   -4.958678e+05   -4.958678e+05   -4.958678e+05   -4.958678e+05   -4.958678e+05   -4.958678e+05   -4.958678e+05   -4.958678e+05   -4.958678e+05   -4.958678e+05   -4.958678e+05   -4.958678e+05   -4.958678e+05   -4.958678e+05   -4.958678e+05   -4.958678e+05 