TITLE = "FEM Line Output"
VARIABLES = "X", "Y", "Z", "U", "V", "W", "RX", "RY", "RZ", "Stress", "Moment", "Torsion"
ZONE T="Time=0.0498", STRANDID=1, SOLUTIONTIME=4.976235e-02, NODES=164, ELEMENTS=363, ZONETYPE=FELINESEG, DATAPACKING=BLOCK, VARLOCATION=([10,11,12]=CELLCENTERED)
   0.000000e+00    0.000000e+00    0.000000e+00    0.000000e+00    1.000000e+00    1.000000e+00    1.000000e+00    1.000000e+00    2.000000e+00    2.000000e+00    2.000000e+00    2.000000e+00    3.000000e+00    3.000000e+00    3.000000e+00    3.000000e+00    4.000000e+00    4.000000e+00    4.000000e+00    4.000000e+00    5.000000e+00    5.000000e+00    5.000000e+00    5.000000e+00    6.000000e+00    6.000000e+00    6.000000e+00    6.000000e+00    7.000000e+00    7.000000e+00    7.000000e+00    7.000000e+00    8.000000e+00    8.000000e+00    8.000000e+00    8.000000e+00    9.000000e+00    9.000000e+00    9.000000e+00    9.000000e+00    1.000000e+01    1.000000e+01    1.000000e+01    1.000000e+01    1.100000e+01    1.100000e+01    1.100000e+01    1.100000e+01    1.200000e+01    1.200000e+01    1.200000e+01    1.200000e+01    1.300000e+01    1.300000e+01    1.300000e+01    1.300000e+01    1.400000e+01    1.400000e+01    1.400000e+01    1.400000e+01    1.500000e+01    1.500000e+01    1.500000e+01    1.500000e+01    1.600000e+01    1.600000e+01    1.600000e+01    1.600000e+01    1.700000e+01    1.700000e+01    1.700000e+01    1.700000e+01    1.800000e+01    1.800000e+01    1.800000e+01    1.800000e+01    1.900000e+01    1.900000e+01    1.900000e+01    1.900000e+01    2.000000e+01    2.000000e+01    2.000000e+01    2.000000e+01    2.100000e+01    2.100000e+01    2.100000e+01    2.100000e+01    2.200000e+01    2.200000e+01    2.200000e+01    2.200000e+01    2.300000e+01    2.300000e+01    2.300000e+01    2.300000e+01    2.400000e+01    2.400000e+01    2.400000e+01    2.400000e+01    2.500000e+01    2.500000e+01    2.500000e+01    2.500000e+01    2.600000e+01    2.600000e+01    2.600000e+01    2.600000e+01    2.700000e+01    2.700000e+01    2.700000e+01    2.700000e+01    2.800000e+01    2.800000e+01    2.800000e+01    2.800000e+01    2.900000e+01    2.900000e+01    2.900000e+01    2.900000e+01    3.000000e+01    3.000000e+01    3.000000e+01    3.000000e+01    3.100000e+01    3.100000e+01    3.100000e+01    3.100000e+01    3.200000e+01    3.200000e+01    3.200000e+01    3.200000e+01    3.300000e+01    3.300000e+01    3.300000e+01    3.300000e+01    3.400000e+01    3.400000e+01    3.400000e+01    3.400000e+01    3.500000e+01    3.500000e+01    3.500000e+01    3.500000e+01    3.600000e+01    3.600000e+01    3.600000e+01    3.600000e+01    3.700000e+01    3.700000e+01    3.700000e+01    3.700000e+01    3.800000e+01    3.800000e+01    3.800000e+01    3.800000e+01    3.900000e+01    3.900000e+01    3.900000e+01    3.900000e+01    4.000000e+01    4.000000e+01    4.000000e+01    4.000000e+01 
   0.000000e+00    0.000000e+00    3.000000e+00    3.000000e+00    0.000000e+00    0.000000e+00    3.000000e+00    3.000000e+00    0.000000e+00    0.000000e+00    3.000000e+00    3.000000e+00    0.000000e+00    0.000000e+00    3.000000e+00    3.000000e+00    0.000000e+00    0.000000e+00    3.000000e+00    3.000000e+00    0.000000e+00    0.000000e+00    3.000000e+00    3.000000e+00    0.000000e+00    0.000000e+00    3.000000e+00    3.000000e+00    0.000000e+00    0.000000e+00    3.000000e+00    3.000000e+00    0.000000e+00    0.000000e+00    3.000000e+00    3.000000e+00    0.000000e+00    0.000000e+00    3.000000e+00    3.000000e+00    0.000000e+00    0.000000e+00    3.000000e+00    3.000000e+00    0.000000e+00    0.000000e+00    3.000000e+00    3.000000e+00    0.000000e+00    0.000000e+00    3.000000e+00    3.000000e+00    0.000000e+00    0.000000e+00    3.000000e+00    3.000000e+00    0.000000e+00    0.000000e+00    3.000000e+00    3.000000e+00    0.000000e+00    0.000000e+00    3.000000e+00    3.000000e+00    0.000000e+00    0.000000e+00    3.000000e+00    3.000000e+00    0.000000e+00    0.000000e+00    3.000000e+00    3.000000e+00    0.000000e+00    0.000000e+00    3.000000e+00    3.000000e+00    0.000000e+00    0.000000e+00    3.000000e+00    3.000000e+00    0.000000e+00    0.000000e+00    3.000000e+00    3.000000e+00    0.000000e+00    0.000000e+00    3.000000e+00    3.000000e+00    0.000000e+00    0.000000e+00    3.000000e+00    3.000000e+00    0.000000e+00    0.000000e+00    3.000000e+00    3.000000e+00    0.000000e+00    0.000000e+00    3.000000e+00    3.000000e+00    0.000000e+00    0.000000e+00    3.000000e+00    3.000000e+00    0.000000e+00    0.000000e+00    3.000000e+00    3.000000e+00    0.000000e+00    0.000000e+00    3.000000e+00    3.000000e+00    0.000000e+00    0.000000e+00    3.000000e+00    3.000000e+00    0.000000e+00    0.000000e+00    3.000000e+00    3.000000e+00    0.000000e+00    0.000000e+00    3.000000e+00    3.000000e+00    0.000000e+00    0.000000e+00    3.000000e+00    3.000000e+00    0.000000e+00    0.000000e+00    3.000000e+00    3.000000e+00    0.000000e+00    0.000000e+00    3.000000e+00    3.000000e+00    0.000000e+00    0.000000e+00    3.000000e+00    3.000000e+00    0.000000e+00    0.000000e+00    3.000000e+00    3.000000e+00    0.000000e+00    0.000000e+00    3.000000e+00    3.000000e+00    0.000000e+00    0.000000e+00    3.000000e+00    3.000000e+00    0.000000e+00    0.000000e+00    3.000000e+00    3.000000e+00    0.000000e+00    0.000000e+00    3.000000e+00    3.000000e+00    0.000000e+00    0.000000e+00    3.000000e+00    3.000000e+00 
   0.000000e+00    4.000000e+00    0.000000e+00    4.000000e+00    0.000000e+00    4.000000e+00    0.000000e+00    4.000000e+00    0.000000e+00    4.000000e+00    0.000000e+00    4.000000e+00    0.000000e+00    4.000000e+00    0.000000e+00    4.000000e+00    0.000000e+00    4.000000e+00    0.000000e+00    4.000000e+00    0.000000e+00    4.000000e+00    0.000000e+00    4.000000e+00    0.000000e+00    4.000000e+00    0.000000e+00    4.000000e+00    0.000000e+00    4.000000e+00    0.000000e+00    4.000000e+00    0.000000e+00    4.000000e+00    0.000000e+00    4.000000e+00    0.000000e+00    4.000000e+00    0.000000e+00    4.000000e+00    0.000000e+00    4.000000e+00    0.000000e+00    4.000000e+00    0.000000e+00    4.000000e+00    0.000000e+00    4.000000e+00    0.000000e+00    4.000000e+00    0.000000e+00    4.000000e+00    0.000000e+00    4.000000e+00    0.000000e+00    4.000000e+00    0.000000e+00    4.000000e+00    0.000000e+00    4.000000e+00    0.000000e+00    4.000000e+00    0.000000e+00    4.000000e+00    0.000000e+00    4.000000e+00    0.000000e+00    4.000000e+00    0.000000e+00    4.000000e+00    0.000000e+00    4.000000e+00    0.000000e+00    4.000000e+00    0.000000e+00    4.000000e+00    0.000000e+00    4.000000e+00    0.000000e+00    4.000000e+00    0.000000e+00    4.000000e+00    0.000000e+00    4.000000e+00    0.000000e+00    4.000000e+00    0.000000e+00    4.000000e+00    0.000000e+00    4.000000e+00    0.000000e+00    4.000000e+00    0.000000e+00    4.000000e+00    0.000000e+00    4.000000e+00    0.000000e+00    4.000000e+00    0.000000e+00    4.000000e+00    0.000000e+00    4.000000e+00    0.000000e+00    4.000000e+00    0.000000e+00    4.000000e+00    0.000000e+00    4.000000e+00    0.000000e+00    4.000000e+00    0.000000e+00    4.000000e+00    0.000000e+00    4.000000e+00    0.000000e+00    4.000000e+00    0.000000e+00    4.000000e+00    0.000000e+00    4.000000e+00    0.000000e+00    4.000000e+00    0.000000e+00    4.000000e+00    0.000000e+00    4.000000e+00    0.000000e+00    4.000000e+00    0.000000e+00    4.000000e+00    0.000000e+00    4.000000e+00    0.000000e+00    4.000000e+00    0.000000e+00    4.000000e+00    0.000000e+00    4.000000e+00    0.000000e+00    4.000000e+00    0.000000e+00    4.000000e+00    0.000000e+00    4.000000e+00    0.000000e+00    4.000000e+00    0.000000e+00    4.000000e+00    0.000000e+00    4.000000e+00    0.000000e+00    4.000000e+00    0.000000e+00    4.000000e+00    0.000000e+00    4.000000e+00    0.000000e+00    4.000000e+00    0.000000e+00    4.000000e+00    0.000000e+00    4.000000e+00    0.000000e+00    4.000000e+00 
   0.000000e+00    0.000000e+00    3.328472e-05    3.340028e-05   -2.107195e-07   -2.107004e-07    3.329086e-05    3.340637e-05   -4.611729e-07   -4.598922e-07    3.348879e-05    3.359810e-05   -7.409750e-07   -7.375003e-07    3.385879e-05    3.395635e-05   -1.035300e-06   -1.029090e-06    3.435955e-05    3.444113e-05   -1.325928e-06   -1.316854e-06    3.493195e-05    3.499502e-05   -1.592441e-06   -1.580746e-06    3.550322e-05    3.554707e-05   -1.813475e-06   -1.799694e-06    3.599174e-05    3.601736e-05   -1.967942e-06   -1.952783e-06    3.631212e-05    3.632186e-05   -2.036130e-06   -2.020362e-06    3.638005e-05    3.637712e-05   -2.000654e-06   -1.985003e-06    3.611675e-05    3.610474e-05   -1.847209e-06   -1.832287e-06    3.545276e-05    3.543520e-05   -1.565142e-06   -1.551403e-06    3.433100e-05    3.431099e-05   -1.147832e-06   -1.135562e-06    3.270902e-05    3.268903e-05   -5.928911e-07   -5.822202e-07    3.056053e-05    3.054233e-05    9.778998e-08    1.068542e-07    2.787622e-05    2.786088e-05    9.181474e-07    9.256800e-07    2.466390e-05    2.465193e-05    1.858132e-06    1.864248e-06    2.094810e-05    2.093962e-05    2.903699e-06    2.908517e-06    1.676932e-05    1.676419e-05    4.034848e-06    4.038461e-06    1.218405e-05    1.218204e-05    5.210514e-06    5.212972e-06    7.272608e-06    7.273526e-06    6.352696e-06    6.354002e-06    2.199591e-06    2.203331e-06    7.420082e-06    7.420192e-06   -2.722662e-06   -2.716071e-06    8.392312e-06    8.391152e-06   -7.328592e-06   -7.319008e-06    9.254940e-06    9.252432e-06   -1.153648e-05   -1.152371e-05    9.997482e-06    9.993578e-06   -1.528828e-05   -1.527218e-05    1.061342e-05    1.060814e-05   -1.854185e-05   -1.852246e-05    1.110040e-05    1.109389e-05   -2.127093e-05   -2.124867e-05    1.146033e-05    1.145288e-05   -2.346594e-05   -2.344177e-05    1.169940e-05    1.169146e-05   -2.513449e-05   -2.510998e-05    1.182782e-05    1.182001e-05   -2.630119e-05   -2.627863e-05    1.185952e-05    1.185257e-05   -2.700696e-05   -2.698926e-05    1.181156e-05    1.180626e-05   -2.730753e-05   -2.729806e-05    1.170341e-05    1.170052e-05   -2.727128e-05   -2.727355e-05    1.155603e-05    1.155616e-05   -2.697626e-05   -2.699347e-05    1.139078e-05    1.139427e-05   -2.650650e-05   -2.654108e-05    1.122822e-05    1.123505e-05   -2.594768e-05   -2.600075e-05    1.108684e-05    1.109662e-05   -2.538225e-05   -2.545331e-05    1.098190e-05    1.099385e-05   -2.488445e-05   -2.497116e-05    1.092438e-05    1.093740e-05   -2.451550e-05   -2.461381e-05    1.092022e-05    1.093305e-05   -2.431942e-05   -2.442388e-05 
   0.000000e+00    0.000000e+00    0.000000e+00    0.000000e+00   -7.622664e-06   -7.779120e-06   -9.207352e-06   -9.309837e-06   -1.579701e-05   -1.609491e-05   -1.716857e-05   -1.741900e-05   -2.500019e-05   -2.540989e-05   -2.597405e-05   -2.634828e-05   -3.561899e-05   -3.610190e-05   -3.604554e-05   -3.650804e-05   -4.793377e-05   -4.844819e-05   -4.770187e-05   -4.821163e-05   -6.210227e-05   -6.260915e-05   -6.114370e-05   -6.166009e-05   -7.815229e-05   -7.861973e-05   -7.644294e-05   -7.693084e-05   -9.598355e-05   -9.638956e-05   -9.354153e-05   -9.397480e-05   -1.153771e-04   -1.157103e-04   -1.122584e-04   -1.126214e-04   -1.360101e-04   -1.362690e-04   -1.323026e-04   -1.325902e-04   -1.574742e-04   -1.576648e-04   -1.532910e-04   -1.535066e-04   -1.792951e-04   -1.794283e-04   -1.747681e-04   -1.749209e-04   -2.009530e-04   -2.010420e-04   -1.962259e-04   -1.963289e-04   -2.219028e-04   -2.219611e-04   -2.171255e-04   -2.171924e-04   -2.415938e-04   -2.416328e-04   -2.369161e-04   -2.369595e-04   -2.594871e-04   -2.595157e-04   -2.550544e-04   -2.550845e-04   -2.750697e-04   -2.750938e-04   -2.710196e-04   -2.710436e-04   -2.878451e-04   -2.878678e-04   -2.843149e-04   -2.843371e-04   -2.971872e-04   -2.972096e-04   -2.943841e-04   -2.944064e-04   -3.013247e-04   -3.013466e-04   -2.999972e-04   -3.000198e-04   -2.973174e-04   -2.973383e-04   -2.987808e-04   -2.988032e-04   -2.881053e-04   -2.881251e-04   -2.910270e-04   -2.910488e-04   -2.754595e-04   -2.754795e-04   -2.790801e-04   -2.791019e-04   -2.600055e-04   -2.600291e-04   -2.641102e-04   -2.641344e-04   -2.422390e-04   -2.422724e-04   -2.466847e-04   -2.467163e-04   -2.226717e-04   -2.227244e-04   -2.273165e-04   -2.273633e-04   -2.018407e-04   -2.019247e-04   -2.065366e-04   -2.066094e-04   -1.802944e-04   -1.804234e-04   -1.848905e-04   -1.850023e-04   -1.585748e-04   -1.587625e-04   -1.629225e-04   -1.630867e-04   -1.371977e-04   -1.374554e-04   -1.411563e-04   -1.413850e-04   -1.166330e-04   -1.169667e-04   -1.200758e-04   -1.203773e-04   -9.728350e-05   -9.769164e-05   -1.001049e-04   -1.004805e-04   -7.946593e-05   -7.993686e-05   -8.158756e-05   -8.202973e-05   -6.339239e-05   -6.390372e-05   -6.476977e-05   -6.526058e-05   -4.915592e-05   -4.967526e-05   -4.978386e-05   -5.029500e-05   -3.672132e-05   -3.720906e-05   -3.663753e-05   -3.713234e-05   -2.592368e-05   -2.633760e-05   -2.520971e-05   -2.564702e-05   -1.647643e-05   -1.677745e-05   -1.525513e-05   -1.559455e-05   -7.989762e-06   -8.147873e-06   -6.418820e-06   -6.626654e-06    0.000000e+00    0.000000e+00    1.737707e-06    1.682689e-06 
   0.000000e+00    0.000000e+00    0.000000e+00    0.000000e+00   -5.839517e-09   -5.452115e-09    0.000000e+00    0.000000e+00   -1.206327e-08   -1.154832e-08    0.000000e+00    0.000000e+00   -1.770270e-08   -1.708614e-08    0.000000e+00    0.000000e+00   -2.218316e-08   -2.149177e-08    0.000000e+00    0.000000e+00   -2.516398e-08   -2.443602e-08    0.000000e+00    0.000000e+00   -2.648924e-08   -2.576269e-08    0.000000e+00    0.000000e+00   -2.617056e-08   -2.548017e-08    0.000000e+00    0.000000e+00   -2.437067e-08   -2.374630e-08    0.000000e+00    0.000000e+00   -2.137178e-08   -2.083751e-08    0.000000e+00    0.000000e+00   -1.753081e-08   -1.710467e-08    0.000000e+00    0.000000e+00   -1.322968e-08   -1.292398e-08    0.000000e+00    0.000000e+00   -8.830211e-09   -8.652049e-09    0.000000e+00    0.000000e+00   -4.640818e-09   -4.592751e-09    0.000000e+00    0.000000e+00   -8.986501e-10   -9.792545e-10    0.000000e+00    0.000000e+00    2.233367e-09    2.028977e-09    0.000000e+00    0.000000e+00    4.657953e-09    4.337716e-09    0.000000e+00    0.000000e+00    6.328277e-09    5.902690e-09    0.000000e+00    0.000000e+00    7.230302e-09    6.712693e-09    0.000000e+00    0.000000e+00    7.361873e-09    6.779155e-09    0.000000e+00    0.000000e+00    6.716132e-09    6.129388e-09    0.000000e+00    0.000000e+00    5.302554e-09    4.772958e-09    0.000000e+00    0.000000e+00    3.146641e-09    2.701295e-09    0.000000e+00    0.000000e+00    2.679770e-10   -7.959645e-11    0.000000e+00    0.000000e+00   -3.304800e-09   -3.543933e-09    0.000000e+00    0.000000e+00   -7.515535e-09   -7.638135e-09    0.000000e+00    0.000000e+00   -1.226591e-08   -1.226693e-08    0.000000e+00    0.000000e+00   -1.740276e-08   -1.728062e-08    0.000000e+00    0.000000e+00   -2.270986e-08   -2.246690e-08    0.000000e+00    0.000000e+00   -2.790672e-08   -2.754977e-08    0.000000e+00    0.000000e+00   -3.265664e-08   -3.219764e-08    0.000000e+00    0.000000e+00   -3.658464e-08   -3.604119e-08    0.000000e+00    0.000000e+00   -3.930477e-08   -3.870046e-08    0.000000e+00    0.000000e+00   -4.045512e-08   -3.981953e-08    0.000000e+00    0.000000e+00   -3.973790e-08   -3.910568e-08    0.000000e+00    0.000000e+00   -3.696382e-08   -3.636819e-08    0.000000e+00    0.000000e+00   -3.208730e-08   -3.156598e-08    0.000000e+00    0.000000e+00   -2.518751e-08   -2.491545e-08    0.000000e+00    0.000000e+00   -1.680768e-08   -1.669089e-08    0.000000e+00    0.000000e+00   -9.800737e-09   -5.741990e-09    0.000000e+00    0.000000e+00    0.000000e+00    0.000000e+00    0.000000e+00    0.000000e+00 
  -1.410707e-07    1.471593e-07    0.000000e+00    0.000000e+00   -6.256254e-07    7.025821e-07    0.000000e+00    0.000000e+00   -1.158276e-06    1.304082e-06    0.000000e+00    0.000000e+00   -1.625050e-06    1.825915e-06    0.000000e+00    0.000000e+00   -1.982951e-06    2.220345e-06    0.000000e+00    0.000000e+00   -2.212135e-06    2.465928e-06    0.000000e+00    0.000000e+00   -2.306605e-06    2.557800e-06    0.000000e+00    0.000000e+00   -2.270861e-06    2.503781e-06    0.000000e+00    0.000000e+00   -2.116958e-06    2.320599e-06    0.000000e+00    0.000000e+00   -1.861632e-06    2.030087e-06    0.000000e+00    0.000000e+00   -1.523910e-06    1.655983e-06    0.000000e+00    0.000000e+00   -1.123507e-06    1.221751e-06    0.000000e+00    0.000000e+00   -6.799413e-07    7.494134e-07    0.000000e+00    0.000000e+00   -2.121321e-07    2.591103e-07    0.000000e+00    0.000000e+00    2.618010e-07   -2.309277e-07    0.000000e+00    0.000000e+00    7.246750e-07   -7.042394e-07    0.000000e+00    0.000000e+00    1.160301e-06   -1.145862e-06    0.000000e+00    0.000000e+00    1.553161e-06   -1.541683e-06    0.000000e+00    0.000000e+00    1.886465e-06   -1.876221e-06    0.000000e+00    0.000000e+00    2.134154e-06   -2.124417e-06    0.000000e+00    0.000000e+00    2.238364e-06   -2.228991e-06    0.000000e+00    0.000000e+00    2.130372e-06   -2.121385e-06    0.000000e+00    0.000000e+00    1.879022e-06   -1.870222e-06    0.000000e+00    0.000000e+00    1.542296e-06   -1.532844e-06    0.000000e+00    0.000000e+00    1.146367e-06   -1.134377e-06    0.000000e+00    0.000000e+00    7.081338e-07   -6.903699e-07    0.000000e+00    0.000000e+00    2.432180e-07   -2.150117e-07    0.000000e+00    0.000000e+00   -2.320927e-07    2.766450e-07    0.000000e+00    0.000000e+00   -7.005263e-07    7.680364e-07    0.000000e+00    0.000000e+00   -1.143891e-06    1.240822e-06    0.000000e+00    0.000000e+00   -1.543225e-06    1.674758e-06    0.000000e+00    0.000000e+00   -1.879012e-06    2.047748e-06    0.000000e+00    0.000000e+00   -2.131606e-06    2.336310e-06    0.000000e+00    0.000000e+00   -2.282128e-06    2.516771e-06    0.000000e+00    0.000000e+00   -2.314094e-06    2.567475e-06    0.000000e+00    0.000000e+00   -2.215798e-06    2.471999e-06    0.000000e+00    0.000000e+00   -1.983193e-06    2.222950e-06    0.000000e+00    0.000000e+00   -1.622802e-06    1.825724e-06    0.000000e+00    0.000000e+00   -1.155004e-06    1.302333e-06    0.000000e+00    0.000000e+00   -6.231483e-07    7.009194e-07    0.000000e+00    0.000000e+00   -1.406661e-07    1.468190e-07    0.000000e+00    0.000000e+00 
   4.570632e-09    3.793212e-09    0.000000e+00    0.000000e+00    5.163968e-09    5.743862e-09    0.000000e+00    0.000000e+00    4.408847e-09    6.300320e-09    0.000000e+00    0.000000e+00    2.865832e-09    6.353429e-09    0.000000e+00    0.000000e+00    8.097954e-10    6.173860e-09    0.000000e+00    0.000000e+00   -1.536419e-09    5.861657e-09    0.000000e+00    0.000000e+00   -3.975025e-09    5.502004e-09    0.000000e+00    0.000000e+00   -6.319642e-09    5.177417e-09    0.000000e+00    0.000000e+00   -8.407355e-09    4.958863e-09    0.000000e+00    0.000000e+00   -1.011469e-08    4.894028e-09    0.000000e+00    0.000000e+00   -1.136716e-08    4.999099e-09    0.000000e+00    0.000000e+00   -1.213990e-08    5.257602e-09    0.000000e+00    0.000000e+00   -1.245007e-08    5.626402e-09    0.000000e+00    0.000000e+00   -1.234422e-08    6.046554e-09    0.000000e+00    0.000000e+00   -1.188407e-08    6.455664e-09    0.000000e+00    0.000000e+00   -1.113421e-08    6.798664e-09    0.000000e+00    0.000000e+00   -1.015353e-08    7.035096e-09    0.000000e+00    0.000000e+00   -8.991103e-09    7.142513e-09    0.000000e+00    0.000000e+00   -7.684231e-09    7.114733e-09    0.000000e+00    0.000000e+00   -6.253731e-09    6.952383e-09    0.000000e+00    0.000000e+00   -4.745444e-09    6.696431e-09    0.000000e+00    0.000000e+00   -3.319244e-09    6.507504e-09    0.000000e+00    0.000000e+00   -2.020711e-09    6.427451e-09    0.000000e+00    0.000000e+00   -8.694088e-10    6.458761e-09    0.000000e+00    0.000000e+00    1.004213e-10    6.598773e-09    0.000000e+00    0.000000e+00    8.452210e-10    6.830988e-09    0.000000e+00    0.000000e+00    1.314319e-09    7.123532e-09    0.000000e+00    0.000000e+00    1.452910e-09    7.431491e-09    0.000000e+00    0.000000e+00    1.207654e-09    7.701318e-09    0.000000e+00    0.000000e+00    5.343501e-10    7.876994e-09    0.000000e+00    0.000000e+00   -5.932313e-10    7.907125e-09    0.000000e+00    0.000000e+00   -2.174534e-09    7.751950e-09    0.000000e+00    0.000000e+00   -4.174673e-09    7.389380e-09    0.000000e+00    0.000000e+00   -6.519330e-09    6.819669e-09    0.000000e+00    0.000000e+00   -9.091644e-09    6.067437e-09    0.000000e+00    0.000000e+00   -1.173037e-08    5.180893e-09    0.000000e+00    0.000000e+00   -1.426655e-08    4.269828e-09    0.000000e+00    0.000000e+00   -1.657454e-08    3.575464e-09    0.000000e+00    0.000000e+00   -1.742971e-08    2.423968e-09    0.000000e+00    0.000000e+00   -1.375580e-08   -1.156770e-09    0.000000e+00    0.000000e+00   -3.408010e-08    2.430122e-08    0.000000e+00    0.000000e+00 
  -7.527520e-06   -7.684188e-06    0.000000e+00    0.000000e+00   -7.810434e-06   -7.961551e-06    0.000000e+00    0.000000e+00   -8.615624e-06   -8.743536e-06    0.000000e+00    0.000000e+00   -9.854079e-06   -9.947096e-06    0.000000e+00    0.000000e+00   -1.142936e-05   -1.148144e-05    0.000000e+00    0.000000e+00   -1.322574e-05   -1.323679e-05    0.000000e+00    0.000000e+00   -1.511534e-05   -1.509048e-05    0.000000e+00    0.000000e+00   -1.696770e-05   -1.691575e-05    0.000000e+00    0.000000e+00   -1.865835e-05   -1.858986e-05    0.000000e+00    0.000000e+00   -2.007531e-05   -2.000066e-05    0.000000e+00    0.000000e+00   -2.112342e-05   -2.105138e-05    0.000000e+00    0.000000e+00   -2.172674e-05   -2.166363e-05    0.000000e+00    0.000000e+00   -2.182963e-05   -2.177900e-05    0.000000e+00    0.000000e+00   -2.139677e-05   -2.135967e-05    0.000000e+00    0.000000e+00   -2.041275e-05   -2.038823e-05    0.000000e+00    0.000000e+00   -1.888106e-05   -1.886684e-05    0.000000e+00    0.000000e+00   -1.682200e-05   -1.681513e-05    0.000000e+00    0.000000e+00   -1.426437e-05   -1.426190e-05    0.000000e+00    0.000000e+00   -1.119950e-05   -1.119895e-05    0.000000e+00    0.000000e+00   -7.294278e-06   -7.293995e-06    0.000000e+00    0.000000e+00   -6.511771e-08   -6.434255e-08    0.000000e+00    0.000000e+00    7.164122e-06    7.165333e-06    0.000000e+00    0.000000e+00    1.106964e-05    1.107042e-05    0.000000e+00    0.000000e+00    1.413519e-05    1.413377e-05    0.000000e+00    0.000000e+00    1.669415e-05    1.668797e-05    0.000000e+00    0.000000e+00    1.875559e-05    1.874161e-05    0.000000e+00    0.000000e+00    2.029114e-05    2.026640e-05    0.000000e+00    0.000000e+00    2.128112e-05    2.124331e-05    0.000000e+00    0.000000e+00    2.172265e-05    2.167087e-05    0.000000e+00    0.000000e+00    2.163188e-05    2.156729e-05    0.000000e+00    0.000000e+00    2.104489e-05    2.097120e-05    0.000000e+00    0.000000e+00    2.001815e-05    1.994183e-05    0.000000e+00    0.000000e+00    1.862838e-05    1.855837e-05    0.000000e+00    0.000000e+00    1.697143e-05    1.691830e-05    0.000000e+00    0.000000e+00    1.515984e-05    1.513426e-05    0.000000e+00    0.000000e+00    1.331840e-05    1.332926e-05    0.000000e+00    0.000000e+00    1.157754e-05    1.162998e-05    0.000000e+00    0.000000e+00    1.006464e-05    1.015853e-05    0.000000e+00    0.000000e+00    8.893900e-06    9.023105e-06    0.000000e+00    0.000000e+00    8.155968e-06    8.308671e-06    0.000000e+00    0.000000e+00    7.905425e-06    8.063757e-06    0.000000e+00    0.000000e+00 
   6.620884e+04    6.530137e+04    9.449742e+04    9.241370e+04    1.171416e+05    1.145087e+05    1.322913e+05    1.295637e+05    1.385413e+05    1.360853e+05    1.351331e+05    1.332296e+05    1.262891e+05    1.245757e+05    1.087682e+05    1.077181e+05    8.222149e+04    8.186563e+04    6.194676e+04    6.217749e+04    6.814713e+04    6.863337e+04    7.366399e+04    7.429588e+04    1.152955e+05    1.148095e+05    1.663711e+05    1.658869e+05    2.165001e+05    2.160729e+05    2.641994e+05    2.638521e+05    3.085949e+05    3.083209e+05    3.521513e+05    3.519234e+05    4.179492e+05    4.177328e+05    6.600116e+05    6.597611e+05    6.531302e+05    6.528242e+05    4.046828e+05    4.042912e+05    3.367008e+05    3.361810e+05    2.921484e+05    2.914662e+05    2.475579e+05    2.466901e+05    2.004671e+05    1.994200e+05    1.517905e+05    1.506085e+05    1.030529e+05    1.018024e+05    6.357645e+04    6.345804e+04    6.168728e+04    6.145862e+04    5.978078e+04    5.939992e+04    7.681314e+04    7.558430e+04    9.818107e+04    9.646358e+04    1.102608e+05    1.081627e+05    1.139068e+05    1.119633e+05    1.119493e+05    1.098170e+05    1.006980e+05    9.863810e+04    8.104018e+04    7.943901e+04    5.489462e+04    5.394499e+04    2.633819e+04    2.650887e+04    3.525259e+03    1.450052e+04    2.658352e+04    3.703585e+04    4.492669e+04    4.984869e+04    5.194055e+04    5.108028e+04    4.761155e+04    4.193911e+04    3.445818e+04    2.562623e+04    1.588892e+04    5.669229e+03    5.823277e+03    1.566888e+04    2.488241e+04    3.319281e+04    4.022315e+04    4.542058e+04    4.760776e+04    4.535460e+04    4.005203e+04    3.292483e+04    2.453180e+04    1.524258e+04    5.333518e+03    5.932755e+03    1.615441e+04    2.588063e+04    3.468756e+04    4.212931e+04    4.774906e+04    5.115492e+04    5.214039e+04    5.030510e+04    4.539330e+04    3.750219e+04    2.704909e+04    1.510293e+04    4.379522e+03    1.228661e+03    1.219495e+03    1.133761e+05    1.095372e+05    3.958672e+04    3.834496e+04    1.012359e+05    9.778336e+04    7.399808e+04    7.164969e+04    7.577657e+04    7.312226e+04    1.001527e+05    9.695695e+04    3.928955e+04    3.768398e+04    1.144805e+05    1.107775e+05   -5.627985e+03   -6.102109e+03    1.142534e+05    1.104096e+05   -5.601261e+04   -5.543579e+04    9.770498e+04    9.405948e+04   -1.087565e+05   -1.073394e+05    6.407604e+04    6.089886e+04   -1.608423e+05   -1.588728e+05    1.358537e+04    1.105205e+04   -2.095285e+05   -2.073141e+05   -5.266069e+04   -5.447506e+04   -2.524712e+05   -2.502889e+05   -1.327976e+05   -1.339081e+05   -2.877861e+05   -2.858481e+05   -2.243519e+05   -2.248423e+05   -3.140655e+05   -3.125035e+05   -3.243958e+05   -3.243920e+05   -3.303660e+05   -3.292322e+05   -4.296975e+05   -4.293413e+05   -3.361824e+05   -3.354617e+05   -5.368626e+05   -5.362896e+05   -3.314138e+05   -3.310423e+05   -6.424647e+05   -6.417884e+05   -3.163136e+05   -3.161997e+05   -7.431597e+05   -7.424624e+05   -2.913509e+05   -2.913951e+05   -8.357557e+05   -8.350858e+05   -2.564882e+05   -2.565999e+05   -9.170547e+05   -9.164304e+05   -2.067329e+05   -2.068424e+05   -9.822876e+05   -9.817032e+05   -1.038453e+05   -1.039101e+05   -1.014604e+06   -1.014039e+06    9.241521e+04    9.241129e+04   -9.844506e+05   -9.838805e+05    1.959159e+05    1.959653e+05   -9.211859e+05   -9.205873e+05    2.465427e+05    2.466109e+05   -8.415775e+05   -8.409396e+05    2.823815e+05    2.824053e+05   -7.503610e+05   -7.496942e+05    3.083835e+05    3.082767e+05   -6.507137e+05   -6.500574e+05    3.245610e+05    3.242255e+05   -5.458146e+05   -5.452418e+05    3.304211e+05    3.297629e+05   -4.390032e+05   -4.386186e+05    3.256835e+05    3.246324e+05   -3.337093e+05   -3.336421e+05    3.104189e+05    3.089494e+05   -2.333406e+05   -2.337296e+05    2.850970e+05    2.832473e+05   -1.411535e+05   -1.421262e+05    2.506188e+05    2.485051e+05   -6.011407e+04   -6.176085e+04    2.083434e+05    2.061628e+05    7.250482e+03    4.902709e+03    1.601001e+05    1.581184e+05    5.900405e+04    5.601490e+04    1.081761e+05    1.066972e+05    9.395050e+04    9.047875e+04    5.526124e+04    5.457874e+04    1.117646e+05    1.080653e+05    4.334589e+03    4.675016e+03    1.130868e+05    1.094893e+05   -4.151263e+04   -4.004485e+04    9.955980e+04    9.642841e+04   -7.931278e+04   -7.677294e+04    7.378940e+04    7.147120e+04   -1.064914e+05   -1.031055e+05    3.921718e+04    3.798632e+04   -1.212278e+05   -1.173918e+05    0.000000e+00    0.000000e+00   -1.056458e+05   -1.020478e+05   -9.143741e+04   -8.827248e+04   -6.492438e+04   -6.255941e+04   -2.843624e+04   -2.707609e+04    1.545964e+04    1.577037e+04    6.390481e+04    6.327019e+04    1.139568e+05    1.125928e+05    1.628014e+05    1.609842e+05    2.079161e+05    2.059275e+05    2.471712e+05    2.452554e+05    2.788791e+05    2.772139e+05    3.018020e+05    3.004892e+05    3.151374e+05    3.142066e+05    3.184916e+05    3.179138e+05    3.118466e+05    3.115534e+05    2.955144e+05    2.954171e+05    2.700051e+05    2.700131e+05    2.353451e+05    2.353806e+05    1.868726e+05    1.868809e+05    8.850079e+04    8.845476e+04   -9.756037e+04   -9.766192e+04   -1.947774e+05   -1.949133e+05   -2.413689e+05   -2.414937e+05   -2.736463e+05   -2.736895e+05   -2.963826e+05   -2.962554e+05   -3.096541e+05   -3.092610e+05   -3.130606e+05   -3.123159e+05   -3.064093e+05   -3.052562e+05   -2.898465e+05   -2.882765e+05   -2.639026e+05   -2.619731e+05   -2.295236e+05   -2.273685e+05   -1.880935e+05   -1.859224e+05   -1.414421e+05   -1.395244e+05   -9.182551e+04   -9.045676e+04   -4.186227e+04   -4.131571e+04    5.586384e+03    5.114737e+03    4.759782e+04    4.603836e+04    8.142011e+04    7.885976e+04    1.047295e+05    1.014146e+05    1.158471e+05    1.121793e+05 