TITLE = "FEM Line Output"
VARIABLES = "X", "Y", "Z", "U", "V", "W", "RX", "RY", "RZ", "Stress", "Moment", "Torsion"
ZONE T="Time=0.0019", STRANDID=1, SOLUTIONTIME=1.904938e-03, NODES=9, ELEMENTS=8, ZONETYPE=FELINESEG, DATAPACKING=BLOCK, VARLOCATION=([10,11,12]=CELLCENTERED)
   0.000000e+00    5.000000e-01    1.000000e+00    1.500000e+00    2.000000e+00    2.000000e+00    2.000000e+00    2.000000e+00    2.000000e+00 
   0.000000e+00    0.000000e+00    0.000000e+00    0.000000e+00    0.000000e+00    5.000000e-01    1.000000e+00    1.500000e+00    2.000000e+00 
   0.000000e+00    0.000000e+00    0.000000e+00    0.000000e+00    0.000000e+00    0.000000e+00    0.000000e+00    0.000000e+00    0.000000e+00 
   0.000000e+00    1.643093e-08    3.286229e-08    4.928242e-08    6.566366e-08   -1.698516e-06   -9.650195e-07   -9.976987e-08    4.843757e-07 
   0.000000e+00   -3.335497e-07    5.154945e-07    4.558131e-06    1.031105e-05    1.038093e-05    1.049230e-05    1.064571e-05    1.084221e-05 
   0.000000e+00    7.392838e-09    1.660504e-07    5.247400e-08   -1.252820e-06   -7.758528e-06   -3.612276e-06    2.777288e-05    9.059726e-05 
   0.000000e+00   -3.642395e-06   -7.290800e-06   -1.095069e-05   -1.462188e-05   -7.641080e-06    3.034034e-05    9.761739e-05    1.422827e-04 
   0.000000e+00   -1.430421e-07   -3.584144e-07    1.232175e-06    3.496778e-06    2.840604e-06    2.377755e-06    2.101710e-06    2.009887e-06 
   0.000000e+00   -3.855937e-07    4.542446e-06    1.129869e-05    8.692087e-06   -1.441339e-07   -2.003810e-06   -1.369638e-06   -1.089850e-06 
   8.086962e+04    1.630717e+05    2.184364e+05    3.147648e+05    6.593564e+05    1.255388e+06    1.569866e+06    1.668723e+06 
   1.079143e+01    2.404138e+01    2.583862e+01    3.898639e+01    6.258098e+01    1.877546e+02    2.484457e+02    2.628674e+02 
   7.898825e+00    7.911858e+00    7.936768e+00    7.961261e+00    1.422965e+00    1.003725e+00    5.986253e-01    1.991271e-01 
1 2
2 3
3 4
4 5
5 6
6 7
7 8
8 9
ZONE T="Time=0.0039", STRANDID=1, SOLUTIONTIME=3.904938e-03, NODES=9, ELEMENTS=8, ZONETYPE=FELINESEG, DATAPACKING=BLOCK, VARLOCATION=([10,11,12]=CELLCENTERED)
   0.000000e+00    5.000000e-01    1.000000e+00    1.500000e+00    2.000000e+00    2.000000e+00    2.000000e+00    2.000000e+00    2.000000e+00 
   0.000000e+00    0.000000e+00    0.000000e+00    0.000000e+00    0.000000e+00    5.000000e-01    1.000000e+00    1.500000e+00    2.000000e+00 
   0.000000e+00    0.000000e+00    0.000000e+00    0.000000e+00    0.000000e+00    0.000000e+00    0.000000e+00    0.000000e+00    0.000000e+00 
   0.000000e+00    2.225794e-08    4.449003e-08    6.667483e-08    8.879937e-08   -6.625651e-06   -5.751734e-06   -1.917443e-06    2.538283e-06 
   0.000000e+00    1.468433e-06    8.742246e-06    2.333793e-05    3.952496e-05    3.962113e-05    3.976008e-05    3.994157e-05    4.016575e-05 
   0.000000e+00    1.397739e-06    2.211927e-07   -1.046944e-05   -3.193246e-05   -1.867177e-05    2.564766e-05    1.237694e-04    2.685113e-04 
   0.000000e+00    3.630759e-06    7.401816e-06    1.145057e-05    1.591349e-05    4.724242e-05    1.385086e-04    2.520353e-04    3.101877e-04 
   0.000000e+00   -2.875735e-06    1.003956e-05    3.343740e-05    4.841770e-05    4.769054e-05    4.716404e-05    4.684486e-05    4.673785e-05 
   0.000000e+00    7.470324e-06    2.228739e-05    3.430294e-05    2.502816e-05    3.948944e-06   -5.874795e-06   -8.703706e-06   -8.972126e-06 
   4.745331e+05    7.507458e+05    8.675502e+05    1.058790e+06    1.820579e+06    2.679967e+06    2.561823e+06    2.271585e+06 
   4.448248e+01    8.781295e+01    9.154624e+01    9.286260e+01    2.113372e+02    3.893273e+02    3.982179e+02    3.612948e+02 
   7.873591e+00    8.177840e+00    8.780048e+00    9.678200e+00    1.576899e+00    1.141757e+00    6.921687e-01    2.320781e-01 
1 2
2 3
3 4
4 5
5 6
6 7
7 8
8 9
ZONE T="Time=0.0059", STRANDID=1, SOLUTIONTIME=5.904938e-03, NODES=9, ELEMENTS=8, ZONETYPE=FELINESEG, DATAPACKING=BLOCK, VARLOCATION=([10,11,12]=CELLCENTERED)
   0.000000e+00    5.000000e-01    1.000000e+00    1.500000e+00    2.000000e+00    2.000000e+00    2.000000e+00    2.000000e+00    2.000000e+00 
   0.000000e+00    0.000000e+00    0.000000e+00    0.000000e+00    0.000000e+00    5.000000e-01    1.000000e+00    1.500000e+00    2.000000e+00 
   0.000000e+00    0.000000e+00    0.000000e+00    0.000000e+00    0.000000e+00    0.000000e+00    0.000000e+00    0.000000e+00    0.000000e+00 
   0.000000e+00    2.499265e-08    4.999938e-08    7.503354e-08    1.001070e-07   -1.322926e-05   -1.345842e-05   -6.976482e-06    1.598455e-06 
   0.000000e+00    7.127461e-06    2.749992e-05    5.719576e-05    8.582571e-05    8.593273e-05    8.608045e-05    8.626887e-05    8.649792e-05 
   0.000000e+00   -9.170542e-07   -1.286451e-05   -4.472530e-05   -9.360268e-05   -1.444939e-05    1.044536e-04    2.814687e-04    5.062979e-04 
   0.000000e+00    3.409628e-05    6.830236e-05    1.027280e-04    1.374826e-04    1.889458e-04    2.934744e-04    4.115824e-04    4.706860e-04 
   0.000000e+00    8.565704e-06    4.241811e-05    8.418464e-05    1.052360e-04    1.054508e-04    1.056062e-04    1.057002e-04    1.057317e-04 
   0.000000e+00    2.814263e-05    5.218201e-05    6.325859e-05    4.455051e-05    1.122506e-05   -8.151385e-06   -1.619978e-05   -1.747398e-05 
   1.060045e+06    1.429388e+06    1.317866e+06    1.573195e+06    2.474977e+06    3.075104e+06    2.873318e+06    2.359626e+06 
   1.188910e+02    1.601594e+02    1.635311e+02    1.311463e+02    2.832288e+02    4.187260e+02    4.258670e+02    3.676435e+02 
   7.394052e+01    7.417861e+01    7.465486e+01    7.536800e+01    4.659166e-01    3.369419e-01    2.039435e-01    6.828482e-02 
1 2
2 3
3 4
4 5
5 6
6 7
7 8
8 9
ZONE T="Time=0.0079", STRANDID=1, SOLUTIONTIME=7.904938e-03, NODES=9, ELEMENTS=8, ZONETYPE=FELINESEG, DATAPACKING=BLOCK, VARLOCATION=([10,11,12]=CELLCENTERED)
   0.000000e+00    5.000000e-01    1.000000e+00    1.500000e+00    2.000000e+00    2.000000e+00    2.000000e+00    2.000000e+00    2.000000e+00 
   0.000000e+00    0.000000e+00    0.000000e+00    0.000000e+00    0.000000e+00    5.000000e-01    1.000000e+00    1.500000e+00    2.000000e+00 
   0.000000e+00    0.000000e+00    0.000000e+00    0.000000e+00    0.000000e+00    0.000000e+00    0.000000e+00    0.000000e+00    0.000000e+00 
   0.000000e+00    3.677442e-08    7.356792e-08    1.103997e-07    1.472891e-07   -2.115133e-05   -2.366692e-05   -1.663211e-05   -6.633434e-06 
   0.000000e+00    1.523224e-05    5.385431e-05    1.037314e-04    1.481203e-04    1.482386e-04    1.483945e-04    1.485880e-04    1.488191e-04 
   0.000000e+00   -1.021640e-05   -4.293915e-05   -9.806862e-05   -1.683313e-04    3.581234e-06    2.210720e-04    4.962207e-04    8.178736e-04 
   0.000000e+00    7.772287e-05    1.555063e-04    2.334109e-04    3.114978e-04    3.831254e-04    4.913914e-04    6.060467e-04    6.640785e-04 
   0.000000e+00    4.210561e-05    8.888683e-05    1.292492e-04    1.465312e-04    1.467416e-04    1.468956e-04    1.469894e-04    1.470209e-04 
   0.000000e+00    5.747244e-05    9.307611e-05    1.009756e-04    6.838155e-05    2.041678e-05   -7.240076e-06   -1.865448e-05   -2.045517e-05 
   2.288062e+06    1.904885e+06    1.450278e+06    1.820415e+06    3.073769e+06    3.240889e+06    2.922857e+06    2.331389e+06 
   2.598285e+02    2.213353e+02    1.778265e+02    1.906948e+02    3.324187e+02    4.109814e+02    4.181471e+02    3.586122e+02 
   1.685483e+02    1.686796e+02    1.689425e+02    1.693376e+02    4.563604e-01    3.338420e-01    2.034880e-01    6.836634e-02 
1 2
2 3
3 4
4 5
5 6
6 7
7 8
8 9
ZONE T="Time=0.0099", STRANDID=1, SOLUTIONTIME=9.904938e-03, NODES=9, ELEMENTS=8, ZONETYPE=FELINESEG, DATAPACKING=BLOCK, VARLOCATION=([10,11,12]=CELLCENTERED)
   0.000000e+00    5.000000e-01    1.000000e+00    1.500000e+00    2.000000e+00    2.000000e+00    2.000000e+00    2.000000e+00    2.000000e+00 
   0.000000e+00    0.000000e+00    0.000000e+00    0.000000e+00    0.000000e+00    5.000000e-01    1.000000e+00    1.500000e+00    2.000000e+00 
   0.000000e+00    0.000000e+00    0.000000e+00    0.000000e+00    0.000000e+00    0.000000e+00    0.000000e+00    0.000000e+00    0.000000e+00 
   0.000000e+00    5.372562e-08    1.074529e-07    1.611833e-07    2.149186e-07   -3.180555e-05   -3.847859e-05   -3.278975e-05   -2.344425e-05 
   0.000000e+00    2.470469e-05    8.523730e-05    1.601971e-04    2.248266e-04    2.249611e-04    2.251286e-04    2.253290e-04    2.255625e-04 
   0.000000e+00   -2.153542e-05   -7.806215e-05   -1.578855e-04   -2.497143e-04    3.098763e-05    3.670372e-04    7.648163e-04    1.210049e-03 
   0.000000e+00    1.285941e-04    2.572296e-04    3.859481e-04    5.147914e-04    6.127014e-04    7.340888e-04    8.528434e-04    9.113625e-04 
   0.000000e+00    8.206899e-05    1.401371e-04    1.754418e-04    1.878380e-04    1.876122e-04    1.874503e-04    1.873528e-04    1.873203e-04 
   0.000000e+00    9.207995e-05    1.429947e-04    1.487019e-04    9.950189e-05    3.381179e-05   -2.731578e-06   -1.707926e-05   -1.923428e-05 
   4.153158e+06    2.858547e+06    1.553178e+06    2.114377e+06    3.920800e+06    3.644401e+06    3.169954e+06    2.374600e+06 
   4.887684e+02    3.343946e+02    1.845605e+02    2.671411e+02    4.087310e+02    4.375386e+02    4.444576e+02    3.627730e+02 
   2.788665e+02    2.789564e+02    2.791364e+02    2.794070e+02    4.896096e-01    3.511443e-01    2.112556e-01    7.051362e-02 
1 2
2 3
3 4
4 5
5 6
6 7
7 8
8 9
ZONE T="Time=0.0119", STRANDID=1, SOLUTIONTIME=1.190494e-02, NODES=9, ELEMENTS=8, ZONETYPE=FELINESEG, DATAPACKING=BLOCK, VARLOCATION=([10,11,12]=CELLCENTERED)
   0.000000e+00    5.000000e-01    1.000000e+00    1.500000e+00    2.000000e+00    2.000000e+00    2.000000e+00    2.000000e+00    2.000000e+00 
   0.000000e+00    0.000000e+00    0.000000e+00    0.000000e+00    0.000000e+00    5.000000e-01    1.000000e+00    1.500000e+00    2.000000e+00 
   0.000000e+00    0.000000e+00    0.000000e+00    0.000000e+00    0.000000e+00    0.000000e+00    0.000000e+00    0.000000e+00    0.000000e+00 
   0.000000e+00    6.866342e-08    1.373197e-07    2.059616e-07    2.745822e-07   -4.645216e-05   -6.018461e-05   -5.774361e-05   -5.050480e-05 
   0.000000e+00    3.512797e-05    1.202917e-04    2.243986e-04    3.138126e-04    3.139666e-04    3.141481e-04    3.143570e-04    3.145933e-04 
   0.000000e+00   -3.059096e-05   -1.086027e-04   -2.150431e-04   -3.342507e-04    6.817926e-05    5.405388e-04    1.083377e-03    1.676671e-03 
   0.000000e+00    1.851108e-04    3.702554e-04    5.554678e-04    7.407818e-04    8.724237e-04    1.017580e-03    1.147565e-03    1.207946e-03 
   0.000000e+00    1.153749e-04    1.902820e-04    2.302730e-04    2.423765e-04    2.421391e-04    2.419676e-04    2.418639e-04    2.418292e-04 
   0.000000e+00    1.304398e-04    1.999096e-04    2.053949e-04    1.394380e-04    5.416999e-05    6.449463e-06   -1.236088e-05   -1.519133e-05 
   5.967419e+06    3.916720e+06    1.916773e+06    2.608908e+06    5.011020e+06    4.305445e+06    3.663109e+06    2.502726e+06 
   7.023721e+02    4.585944e+02    2.261336e+02    3.480909e+02    5.352967e+02    5.247035e+02    5.056035e+02    3.786309e+02 
   4.014276e+02    4.015010e+02    4.016478e+02    4.018683e+02    5.146959e-01    3.719694e-01    2.249229e-01    7.526545e-02 
1 2
2 3
3 4
4 5
5 6
6 7
7 8
8 9
ZONE T="Time=0.0139", STRANDID=1, SOLUTIONTIME=1.390494e-02, NODES=9, ELEMENTS=8, ZONETYPE=FELINESEG, DATAPACKING=BLOCK, VARLOCATION=([10,11,12]=CELLCENTERED)
   0.000000e+00    5.000000e-01    1.000000e+00    1.500000e+00    2.000000e+00    2.000000e+00    2.000000e+00    2.000000e+00    2.000000e+00 
   0.000000e+00    0.000000e+00    0.000000e+00    0.000000e+00    0.000000e+00    5.000000e-01    1.000000e+00    1.500000e+00    2.000000e+00 
   0.000000e+00    0.000000e+00    0.000000e+00    0.000000e+00    0.000000e+00    0.000000e+00    0.000000e+00    0.000000e+00    0.000000e+00 
   0.000000e+00    8.066704e-08    1.613299e-07    2.419844e-07    3.226263e-07   -6.531134e-05   -8.989614e-05   -9.385703e-05   -9.154249e-05 
   0.000000e+00    4.626344e-05    1.581009e-04    2.945268e-04    4.126778e-04    4.128528e-04    4.130492e-04    4.132671e-04    4.135064e-04 
   0.000000e+00   -3.744497e-05   -1.338079e-04   -2.661721e-04   -4.144671e-04    1.203833e-04    7.426506e-04    1.446624e-03    2.205060e-03 
   0.000000e+00    2.464076e-04    4.928436e-04    7.393364e-04    9.859142e-04    1.156280e-03    1.331156e-03    1.475956e-03    1.538855e-03 
   0.000000e+00    1.417342e-04    2.360198e-04    2.866841e-04    3.013156e-04    3.014054e-04    3.014691e-04    3.015072e-04    3.015198e-04 
   0.000000e+00    1.716050e-04    2.621264e-04    2.693572e-04    1.877487e-04    8.270289e-05    2.254734e-05   -1.821151e-06   -5.581257e-06 
   7.588714e+06    5.007392e+06    2.448514e+06    3.197753e+06    6.220774e+06    5.291806e+06    4.290367e+06    2.676190e+06 
   8.971345e+02    5.872517e+02    2.890409e+02    4.270196e+02    6.898256e+02    6.571085e+02    5.851189e+02    4.001976e+02 
   5.343547e+02    5.344162e+02    5.345392e+02    5.347237e+02    1.948566e-01    1.381406e-01    8.246488e-02    2.741815e-02 
1 2
2 3
3 4
4 5
5 6
6 7
7 8
8 9
ZONE T="Time=0.0159", STRANDID=1, SOLUTIONTIME=1.590494e-02, NODES=9, ELEMENTS=8, ZONETYPE=FELINESEG, DATAPACKING=BLOCK, VARLOCATION=([10,11,12]=CELLCENTERED)
   0.000000e+00    5.000000e-01    1.000000e+00    1.500000e+00    2.000000e+00    2.000000e+00    2.000000e+00    2.000000e+00    2.000000e+00 
   0.000000e+00    0.000000e+00    0.000000e+00    0.000000e+00    0.000000e+00    5.000000e-01    1.000000e+00    1.500000e+00    2.000000e+00 
   0.000000e+00    0.000000e+00    0.000000e+00    0.000000e+00    0.000000e+00    0.000000e+00    0.000000e+00    0.000000e+00    0.000000e+00 
   0.000000e+00    9.170898e-08    1.834167e-07    2.751221e-07    3.668237e-07   -8.816434e-05   -1.281623e-04   -1.433887e-04   -1.509590e-04 
   0.000000e+00    5.788552e-05    1.978191e-04    3.688767e-04    5.189443e-04    5.191403e-04    5.193517e-04    5.195786e-04    5.198209e-04 
   0.000000e+00   -4.345531e-05   -1.555340e-04   -3.095157e-04   -4.815675e-04    1.939967e-04    9.748859e-04    1.848691e-03    2.780897e-03 
   0.000000e+00    3.116187e-04    6.232590e-04    9.349426e-04    1.246691e-03    1.457369e-03    1.662212e-03    1.821645e-03    1.887007e-03 
   0.000000e+00    1.646479e-04    2.746926e-04    3.331565e-04    3.492216e-04    3.495876e-04    3.498496e-04    3.500071e-04    3.500597e-04 
   0.000000e+00    2.146971e-04    3.280898e-04    3.388166e-04    2.432781e-04    1.198809e-04    4.815239e-05    1.859525e-05    1.396522e-05 
   9.184679e+06    6.060724e+06    2.944594e+06    3.709049e+06    7.410190e+06    6.337022e+06    4.902774e+06    2.843855e+06 
   1.091769e+03    7.128429e+02    3.459269e+02    5.002402e+02    8.484299e+02    7.900535e+02    6.638798e+02    4.213356e+02 
   6.757700e+02    6.758170e+02    6.759109e+02    6.760516e+02    7.936320e-01    5.683111e-01    3.415620e-01    1.139502e-01 
1 2
2 3
3 4
4 5
5 6
6 7
7 8
8 9
ZONE T="Time=0.0179", STRANDID=1, SOLUTIONTIME=1.790494e-02, NODES=9, ELEMENTS=8, ZONETYPE=FELINESEG, DATAPACKING=BLOCK, VARLOCATION=([10,11,12]=CELLCENTERED)
   0.000000e+00    5.000000e-01    1.000000e+00    1.500000e+00    2.000000e+00    2.000000e+00    2.000000e+00    2.000000e+00    2.000000e+00 
   0.000000e+00    0.000000e+00    0.000000e+00    0.000000e+00    0.000000e+00    5.000000e-01    1.000000e+00    1.500000e+00    2.000000e+00 
   0.000000e+00    0.000000e+00    0.000000e+00    0.000000e+00    0.000000e+00    0.000000e+00    0.000000e+00    0.000000e+00    0.000000e+00 
   0.000000e+00    1.021847e-07    2.043663e-07    3.065420e-07    4.087086e-07   -1.150226e-04   -1.757157e-04   -2.083513e-04   -2.322824e-04 
   0.000000e+00    6.971147e-05    2.384687e-04    4.456414e-04    6.302109e-04    6.304267e-04    6.306523e-04    6.308876e-04    6.311328e-04 
   0.000000e+00   -4.864816e-05   -1.728896e-04   -3.414916e-04   -5.279368e-04    2.935460e-04    1.237320e-03    2.283860e-03    3.392085e-03 
   0.000000e+00    3.794199e-04    7.588507e-04    1.138303e-03    1.517788e-03    1.768320e-03    2.000328e-03    2.172170e-03    2.239544e-03 
   0.000000e+00    1.836782e-04    3.027700e-04    3.626141e-04    3.775067e-04    3.779744e-04    3.783090e-04    3.785101e-04    3.785771e-04 
   0.000000e+00    2.586589e-04    3.961691e-04    4.122106e-04    3.053572e-04    1.664474e-04    8.535644e-05    5.179733e-05    4.652212e-05 
   1.075370e+07    7.016012e+06    3.318706e+06    4.057994e+06    8.490546e+06    7.281038e+06    5.418576e+06    2.977805e+06 
   1.285559e+03    8.296071e+02    3.870064e+02    5.633214e+02    1.006158e+03    9.121614e+02    7.314142e+02    4.385892e+02 
   8.228025e+02    8.228260e+02    8.228729e+02    8.229432e+02    1.014207e+00    7.257035e-01    4.359323e-01    1.453960e-01 
1 2
2 3
3 4
4 5
5 6
6 7
7 8
8 9
ZONE T="Time=0.0199", STRANDID=1, SOLUTIONTIME=1.990494e-02, NODES=9, ELEMENTS=8, ZONETYPE=FELINESEG, DATAPACKING=BLOCK, VARLOCATION=([10,11,12]=CELLCENTERED)
   0.000000e+00    5.000000e-01    1.000000e+00    1.500000e+00    2.000000e+00    2.000000e+00    2.000000e+00    2.000000e+00    2.000000e+00 
   0.000000e+00    0.000000e+00    0.000000e+00    0.000000e+00    0.000000e+00    5.000000e-01    1.000000e+00    1.500000e+00    2.000000e+00 
   0.000000e+00    0.000000e+00    0.000000e+00    0.000000e+00    0.000000e+00    0.000000e+00    0.000000e+00    0.000000e+00    0.000000e+00 
   0.000000e+00    1.107175e-07    2.214281e-07    3.321250e-07    4.428013e-07   -1.461755e-04   -2.334685e-04   -2.903653e-04   -3.378392e-04 
   0.000000e+00    8.137335e-05    2.789000e-04    5.229309e-04    7.442692e-04    7.445029e-04    7.447412e-04    7.449843e-04    7.452319e-04 
   0.000000e+00   -5.183938e-05   -1.824752e-04   -3.568724e-04   -5.471755e-04    4.213492e-04    1.528248e-03    2.746715e-03    4.029665e-03 
   0.000000e+00    4.478554e-04    8.957086e-04    1.343557e-03    1.791399e-03    2.080857e-03    2.337766e-03    2.520359e-03    2.589414e-03 
   0.000000e+00    1.947961e-04    3.159127e-04    3.721656e-04    3.841327e-04    3.846209e-04    3.849697e-04    3.851790e-04    3.852488e-04 
   0.000000e+00    3.021812e-04    4.646996e-04    4.883699e-04    3.739753e-04    2.234202e-04    1.355459e-04    9.920570e-05    9.349848e-05 
   1.213625e+07    7.820623e+06    3.596599e+06    4.246826e+06    9.659624e+06    8.116838e+06    5.850338e+06    3.084634e+06 
   1.462565e+03    9.336018e+02    4.190744e+02    6.114648e+02    1.157695e+03    1.023620e+03    7.899596e+02    4.529434e+02 
   9.712103e+02    9.712054e+02    9.711957e+02    9.711811e+02    1.058628e+00    7.563720e-01    4.539069e-01    1.513162e-01 
1 2
2 3
3 4
4 5
5 6
6 7
7 8
8 9
ZONE T="Time=0.0219", STRANDID=1, SOLUTIONTIME=2.190494e-02, NODES=9, ELEMENTS=8, ZONETYPE=FELINESEG, DATAPACKING=BLOCK, VARLOCATION=([10,11,12]=CELLCENTERED)
   0.000000e+00    5.000000e-01    1.000000e+00    1.500000e+00    2.000000e+00    2.000000e+00    2.000000e+00    2.000000e+00    2.000000e+00 
   0.000000e+00    0.000000e+00    0.000000e+00    0.000000e+00    0.000000e+00    5.000000e-01    1.000000e+00    1.500000e+00    2.000000e+00 
   0.000000e+00    0.000000e+00    0.000000e+00    0.000000e+00    0.000000e+00    0.000000e+00    0.000000e+00    0.000000e+00    0.000000e+00 
   0.000000e+00    1.157846e-07    2.315597e-07    3.473156e-07    4.630427e-07   -1.818936e-04   -3.021344e-04   -3.905450e-04   -4.690897e-04 
   0.000000e+00    9.250112e-05    3.180023e-04    5.989996e-04    8.591556e-04    8.594050e-04    8.596546e-04    8.599044e-04    8.601543e-04 
   0.000000e+00   -5.182445e-05   -1.809487e-04   -3.508096e-04   -5.338118e-04    5.788042e-04    1.845390e-03    3.232057e-03    4.685918e-03 
   0.000000e+00    5.149360e-04    1.029859e-03    1.544755e-03    2.059612e-03    2.386967e-03    2.667960e-03    2.860955e-03    2.931640e-03 
   0.000000e+00    1.939639e-04    3.101524e-04    3.598324e-04    3.682618e-04    3.687868e-04    3.691617e-04    3.693865e-04    3.694615e-04 
   0.000000e+00    3.439734e-04    5.321712e-04    5.663694e-04    4.492324e-04    2.916184e-04    1.995992e-04    1.615467e-04    1.555719e-04 
   1.316696e+07    8.428491e+06    3.818298e+06    4.293840e+06    1.071768e+07    8.860238e+06    6.236216e+06    3.180580e+06 
   1.608588e+03    1.022787e+03    4.510807e+02    6.407747e+02    1.298494e+03    1.127684e+03    8.453042e+02    4.667314e+02 
   1.116680e+03    1.116651e+03    1.116594e+03    1.116508e+03    1.138511e+00    8.129147e-01    4.876249e-01    1.625209e-01 
1 2
2 3
3 4
4 5
5 6
6 7
7 8
8 9
ZONE T="Time=0.0239", STRANDID=1, SOLUTIONTIME=2.390494e-02, NODES=9, ELEMENTS=8, ZONETYPE=FELINESEG, DATAPACKING=BLOCK, VARLOCATION=([10,11,12]=CELLCENTERED)
   0.000000e+00    5.000000e-01    1.000000e+00    1.500000e+00    2.000000e+00    2.000000e+00    2.000000e+00    2.000000e+00    2.000000e+00 
   0.000000e+00    0.000000e+00    0.000000e+00    0.000000e+00    0.000000e+00    5.000000e-01    1.000000e+00    1.500000e+00    2.000000e+00 
   0.000000e+00    0.000000e+00    0.000000e+00    0.000000e+00    0.000000e+00    0.000000e+00    0.000000e+00    0.000000e+00    0.000000e+00 
   0.000000e+00    1.166523e-07    2.332942e-07    3.499154e-07    4.665054e-07   -2.222101e-04   -3.819673e-04   -5.094219e-04   -6.268470e-04 
   0.000000e+00    1.028254e-04    3.549382e-04    6.724613e-04    9.731806e-04    9.734432e-04    9.737022e-04    9.739576e-04    9.742094e-04 
   0.000000e+00   -4.803926e-05   -1.665176e-04   -3.201687e-04   -4.834816e-04    7.672424e-04    2.186903e-03    3.734931e-03    5.352839e-03 
   0.000000e+00    5.792298e-04    1.158439e-03    1.737608e-03    2.316716e-03    2.680340e-03    2.984590e-03    3.187824e-03    3.260139e-03 
   0.000000e+00    1.791664e-04    2.827809e-04    3.230308e-04    3.275121e-04    3.281051e-04    3.285286e-04    3.287827e-04    3.288674e-04 
   0.000000e+00    3.830807e-04    5.973746e-04    6.452983e-04    5.308709e-04    3.713518e-04    2.780446e-04    2.393854e-04    2.333058e-04 
   1.376429e+07    8.802530e+06    3.982848e+06    4.189831e+06    1.160926e+07    9.499444e+06    6.578532e+06    3.268204e+06 
   1.720362e+03    1.097650e+03    4.874735e+02    6.486186e+02    1.425685e+03    1.223687e+03    8.981179e+02    4.803673e+02 
   1.256106e+03    1.256062e+03    1.255974e+03    1.255842e+03    1.285971e+00    9.184352e-01    5.510144e-01    1.836636e-01 
1 2
2 3
3 4
4 5
5 6
6 7
7 8
8 9
ZONE T="Time=0.0259", STRANDID=1, SOLUTIONTIME=2.590494e-02, NODES=9, ELEMENTS=8, ZONETYPE=FELINESEG, DATAPACKING=BLOCK, VARLOCATION=([10,11,12]=CELLCENTERED)
   0.000000e+00    5.000000e-01    1.000000e+00    1.500000e+00    2.000000e+00    2.000000e+00    2.000000e+00    2.000000e+00    2.000000e+00 
   0.000000e+00    0.000000e+00    0.000000e+00    0.000000e+00    0.000000e+00    5.000000e-01    1.000000e+00    1.500000e+00    2.000000e+00 
   0.000000e+00    0.000000e+00    0.000000e+00    0.000000e+00    0.000000e+00    0.000000e+00    0.000000e+00    0.000000e+00    0.000000e+00 
   0.000000e+00    1.133024e-07    2.265947e-07    3.398670e-07    4.531092e-07   -2.669124e-04   -4.727373e-04   -6.468868e-04   -8.111779e-04 
   0.000000e+00    1.121985e-04    3.891935e-04    7.423442e-04    1.084972e-03    1.085245e-03    1.085512e-03    1.085771e-03    1.086025e-03 
   0.000000e+00   -4.044374e-05   -1.387290e-04   -2.634775e-04   -3.932475e-04    9.876677e-04    2.551273e-03    4.250759e-03    6.022550e-03 
   0.000000e+00    6.398780e-04    1.279731e-03    1.919535e-03    2.559265e-03    2.956577e-03    3.282000e-03    3.494487e-03    3.568271e-03 
   0.000000e+00    1.500833e-04    2.323823e-04    2.591580e-04    2.587804e-04    2.594338e-04    2.599007e-04    2.601809e-04    2.602743e-04 
   0.000000e+00    4.189500e-04    6.594393e-04    7.242459e-04    6.182542e-04    4.624017e-04    3.710116e-04    3.330456e-04    3.270617e-04 
   1.391813e+07    8.917027e+06    4.059237e+06    3.921922e+06    1.231320e+07    1.000017e+07    6.848028e+06    3.337687e+06 
   1.803816e+03    1.161813e+03    5.310852e+02    6.335558e+02    1.538149e+03    1.307716e+03    9.445353e+02    4.925044e+02 
   1.387627e+03    1.387573e+03    1.387466e+03    1.387305e+03    1.417004e+00    1.012429e+00    6.075707e-01    2.025425e-01 
1 2
2 3
3 4
4 5
5 6
6 7
7 8
8 9
ZONE T="Time=0.0279", STRANDID=1, SOLUTIONTIME=2.790494e-02, NODES=9, ELEMENTS=8, ZONETYPE=FELINESEG, DATAPACKING=BLOCK, VARLOCATION=([10,11,12]=CELLCENTERED)
   0.000000e+00    5.000000e-01    1.000000e+00    1.500000e+00    2.000000e+00    2.000000e+00    2.000000e+00    2.000000e+00    2.000000e+00 
   0.000000e+00    0.000000e+00    0.000000e+00    0.000000e+00    0.000000e+00    5.000000e-01    1.000000e+00    1.500000e+00    2.000000e+00 
   0.000000e+00    0.000000e+00    0.000000e+00    0.000000e+00    0.000000e+00    0.000000e+00    0.000000e+00    0.000000e+00    0.000000e+00 
   0.000000e+00    1.059837e-07    2.119580e-07    3.179134e-07    4.238405e-07   -3.156410e-04   -5.738244e-04   -8.021570e-04   -1.021182e-03 
   0.000000e+00    1.205539e-04    4.204933e-04    8.080372e-04    1.193524e-03    1.193804e-03    1.194075e-03    1.194338e-03    1.194592e-03 
   0.000000e+00   -2.913942e-05   -9.764841e-05   -1.803151e-04   -2.618242e-04    1.240077e-03    2.936719e-03    4.775497e-03    6.688526e-03 
   0.000000e+00    6.963197e-04    1.392611e-03    2.088848e-03    2.785000e-03    3.212672e-03    3.556088e-03    3.776089e-03    3.851036e-03 
   0.000000e+00    1.069374e-04    1.584790e-04    1.667721e-04    1.601850e-04    1.608568e-04    1.613369e-04    1.616250e-04    1.617211e-04 
   0.000000e+00    4.513087e-04    7.178077e-04    8.024496e-04    7.105985e-04    5.641378e-04    4.780887e-04    4.422687e-04    4.366134e-04 
   1.363895e+07    8.758828e+06    4.021135e+06    3.800321e+06    1.281930e+07    1.033591e+07    7.019211e+06    3.380056e+06 
   1.869074e+03    1.222279e+03    5.870513e+02    5.952983e+02    1.636153e+03    1.376789e+03    9.811863e+02    5.019107e+02 
   1.510025e+03    1.509964e+03    1.509844e+03    1.509663e+03    1.456887e+00    1.041093e+00    6.248398e-01    2.083107e-01 
1 2
2 3
3 4
4 5
5 6
6 7
7 8
8 9
ZONE T="Time=0.0299", STRANDID=1, SOLUTIONTIME=2.990494e-02, NODES=9, ELEMENTS=8, ZONETYPE=FELINESEG, DATAPACKING=BLOCK, VARLOCATION=([10,11,12]=CELLCENTERED)
   0.000000e+00    5.000000e-01    1.000000e+00    1.500000e+00    2.000000e+00    2.000000e+00    2.000000e+00    2.000000e+00    2.000000e+00 
   0.000000e+00    0.000000e+00    0.000000e+00    0.000000e+00    0.000000e+00    5.000000e-01    1.000000e+00    1.500000e+00    2.000000e+00 
   0.000000e+00    0.000000e+00    0.000000e+00    0.000000e+00    0.000000e+00    0.000000e+00    0.000000e+00    0.000000e+00    0.000000e+00 
   0.000000e+00    9.492997e-08    1.898510e-07    2.847542e-07    3.796306e-07   -3.679593e-04   -6.842934e-04   -9.737795e-04   -1.254887e-03 
   0.000000e+00    1.278730e-04    4.487313e-04    8.692394e-04    1.298215e-03    1.298498e-03    1.298772e-03    1.299037e-03    1.299292e-03 
   0.000000e+00   -1.418542e-05   -4.346253e-05   -7.100785e-05   -8.967056e-05    1.523137e-03    3.340907e-03    5.305717e-03    7.346212e-03 
   0.000000e+00    7.481506e-04    1.496271e-03    2.244332e-03    2.992304e-03    3.446741e-03    3.804742e-03    4.030394e-03    4.106175e-03 
   0.000000e+00    4.993894e-05    6.135129e-05    4.614575e-05    3.198594e-05    3.263053e-05    3.309112e-05    3.336755e-05    3.345970e-05 
   0.000000e+00    4.800659e-04    7.722073e-04    8.793968e-04    8.071363e-04    6.756071e-04    5.982492e-04    5.660138e-04    5.609203e-04 
   1.293179e+07    8.327731e+06    4.472633e+06    3.737305e+06    1.312722e+07    1.050372e+07    7.088964e+06    3.394177e+06 
   1.928786e+03    1.289000e+03    6.620137e+02    5.346946e+02    1.721043e+03    1.431022e+03    1.007780e+03    5.084323e+02 
   1.622424e+03    1.622360e+03    1.622230e+03    1.622036e+03    1.397851e+00    9.988362e-01    5.994504e-01    1.998416e-01 
1 2
2 3
3 4
4 5
5 6
6 7
7 8
8 9
ZONE T="Time=0.0319", STRANDID=1, SOLUTIONTIME=3.190494e-02, NODES=9, ELEMENTS=8, ZONETYPE=FELINESEG, DATAPACKING=BLOCK, VARLOCATION=([10,11,12]=CELLCENTERED)
   0.000000e+00    5.000000e-01    1.000000e+00    1.500000e+00    2.000000e+00    2.000000e+00    2.000000e+00    2.000000e+00    2.000000e+00 
   0.000000e+00    0.000000e+00    0.000000e+00    0.000000e+00    0.000000e+00    5.000000e-01    1.000000e+00    1.500000e+00    2.000000e+00 
   0.000000e+00    0.000000e+00    0.000000e+00    0.000000e+00    0.000000e+00    0.000000e+00    0.000000e+00    0.000000e+00    0.000000e+00 
   0.000000e+00    8.038222e-08    1.607563e-07    2.411140e-07    3.214472e-07   -4.233556e-04   -8.029100e-04   -1.159672e-03   -1.509318e-03 
   0.000000e+00    1.341848e-04    4.739666e-04    9.259495e-04    1.398793e-03    1.399077e-03    1.399352e-03    1.399617e-03    1.399871e-03 
   0.000000e+00    4.324308e-06    2.335483e-05    6.324456e-05    1.210505e-04    1.834322e-03    3.761079e-03    5.838605e-03    7.992818e-03 
   0.000000e+00    7.951836e-04    1.590337e-03    2.385430e-03    3.180434e-03    3.658149e-03    4.027687e-03    4.257410e-03    4.333753e-03 
   0.000000e+00   -2.048149e-05   -5.788896e-05   -1.009670e-04   -1.237999e-04   -1.232124e-04   -1.227926e-04   -1.225407e-04   -1.224568e-04 
   0.000000e+00    5.053097e-04    8.226394e-04    9.548107e-04    9.071102e-04    7.955489e-04    7.298931e-04    7.025188e-04    6.981917e-04 
   1.262480e+07    9.132469e+06    5.408190e+06    3.597387e+06    1.324665e+07    1.051864e+07    7.070064e+06    3.384348e+06 