TITLE = "FEM Line Output"
VARIABLES = "X", "Y", "Z", "U", "V", "W", "RX", "RY", "RZ", "Stress", "Moment", "Torsion"
ZONE T="Time=0.0000", STRANDID=1, SOLUTIONTIME=0.000000e+00, NODES=9, ELEMENTS=8, ZONETYPE=FELINESEG, DATAPACKING=BLOCK, VARLOCATION=([10,11,12]=CELLCENTERED)
   0.000000e+00    5.000000e-01    1.000000e+00    1.500000e+00    2.000000e+00    2.000000e+00    2.000000e+00    2.000000e+00    2.000000e+00 
   0.000000e+00    0.000000e+00    0.000000e+00    0.000000e+00    0.000000e+00    5.000000e-01    1.000000e+00    1.500000e+00    2.000000e+00 
   0.000000e+00    0.000000e+00    0.000000e+00    0.000000e+00    0.000000e+00    0.000000e+00    0.000000e+00    0.000000e+00    0.000000e+00 
   0.000000e+00   -9.779181e-21   -1.955836e-20   -2.933754e-20   -3.911673e-20   -6.000002e-04   -1.200000e-03   -1.800001e-03   -2.400001e-03 
   0.000000e+00    1.375001e-04    5.000002e-04    1.012500e-03    1.600001e-03    1.600251e-03    1.600501e-03    1.600751e-03    1.601001e-03 
   0.000000e+00    1.375001e-04    5.000002e-04    1.012500e-03    1.600001e-03    3.582026e-03    5.789051e-03    8.146076e-03    1.057810e-02 
   0.000000e+00    9.222625e-04    1.844525e-03    2.766787e-03    3.689050e-03    4.214050e-03    4.589050e-03    4.814050e-03    4.889050e-03 
   0.000000e+00   -5.250002e-04   -9.000004e-04   -1.125000e-03   -1.200000e-03   -1.200000e-03   -1.200000e-03   -1.200000e-03   -1.200000e-03 
   0.000000e+00    5.250002e-04    9.000004e-04    1.125000e-03    1.200000e-03    1.200000e-03    1.200000e-03    1.200000e-03    1.200000e-03 
   2.400000e+07    1.800000e+07    1.200000e+07    6.000001e+06    1.210000e+07    9.100002e+06    6.100001e+06    3.100001e+06 
   2.828427e+03    2.121320e+03    1.414214e+03    7.071068e+02    2.000000e+03    1.500000e+03    1.000000e+03    5.000000e+02 
   2.000000e+03    2.000000e+03    2.000000e+03    2.000000e+03    4.547474e-13    4.547474e-13    4.547474e-13    4.547474e-13 
1 2
2 3
3 4
4 5
5 6
6 7
7 8
8 9
