TITLE = "FEM Line Output"
VARIABLES = "X", "Y", "Z", "U", "V", "W", "RX", "RY", "RZ", "Stress", "Moment", "Torsion"
ZONE T="Time=0.0000", STRANDID=1, SOLUTIONTIME=0.000000e+00, NODES=164, ELEMENTS=363, ZONETYPE=FELINESEG, DATAPACKING=BLOCK, VARLOCATION=([10,11,12]=CELLCENTERED)
   0.000000e+00    0.000000e+00    0.000000e+00    0.000000e+00    1.000000e+00    1.000000e+00    1.000000e+00    1.000000e+00    2.000000e+00    2.000000e+00    2.000000e+00    2.000000e+00    3.000000e+00    3.000000e+00    3.000000e+00    3.000000e+00    4.000000e+00    4.000000e+00    4.000000e+00    4.000000e+00    5.000000e+00    5.000000e+00    5.000000e+00    5.000000e+00    6.000000e+00    6.000000e+00    6.000000e+00    6.000000e+00    7.000000e+00    7.000000e+00    7.000000e+00    7.000000e+00    8.000000e+00    8.000000e+00    8.000000e+00    8.000000e+00    9.000000e+00    9.000000e+00    9.000000e+00    9.000000e+00    1.000000e+01    1.000000e+01    1.000000e+01    1.000000e+01    1.100000e+01    1.100000e+01    1.100000e+01    1.100000e+01    1.200000e+01    1.200000e+01    1.200000e+01    1.200000e+01    1.300000e+01    1.300000e+01    1.300000e+01    1.300000e+01    1.400000e+01    1.400000e+01    1.400000e+01    1.400000e+01    1.500000e+01    1.500000e+01    1.500000e+01    1.500000e+01    1.600000e+01    1.600000e+01    1.600000e+01    1.600000e+01    1.700000e+01    1.700000e+01    1.700000e+01    1.700000e+01    1.800000e+01    1.800000e+01    1.800000e+01    1.800000e+01    1.900000e+01    1.900000e+01    1.900000e+01    1.900000e+01    2.000000e+01    2.000000e+01    2.000000e+01    2.000000e+01    2.100000e+01    2.100000e+01    2.100000e+01    2.100000e+01    2.200000e+01    2.200000e+01    2.200000e+01    2.200000e+01    2.300000e+01    2.300000e+01    2.300000e+01    2.300000e+01    2.400000e+01    2.400000e+01    2.400000e+01    2.400000e+01    2.500000e+01    2.500000e+01    2.500000e+01    2.500000e+01    2.600000e+01    2.600000e+01    2.600000e+01    2.600000e+01    2.700000e+01    2.700000e+01    2.700000e+01    2.700000e+01    2.800000e+01    2.800000e+01    2.800000e+01    2.800000e+01    2.900000e+01    2.900000e+01    2.900000e+01    2.900000e+01    3.000000e+01    3.000000e+01    3.000000e+01    3.000000e+01    3.100000e+01    3.100000e+01    3.100000e+01    3.100000e+01    3.200000e+01    3.200000e+01    3.200000e+01    3.200000e+01    3.300000e+01    3.300000e+01    3.300000e+01    3.300000e+01    3.400000e+01    3.400000e+01    3.400000e+01    3.400000e+01    3.500000e+01    3.500000e+01    3.500000e+01    3.500000e+01    3.600000e+01    3.600000e+01    3.600000e+01    3.600000e+01    3.700000e+01    3.700000e+01    3.700000e+01    3.700000e+01    3.800000e+01    3.800000e+01    3.800000e+01    3.800000e+01    3.900000e+01    3.900000e+01    3.900000e+01    3.900000e+01    4.000000e+01    4.000000e+01    4.000000e+01    4.000000e+01 
   0.000000e+00    0.000000e+00    3.000000e+00    3.000000e+00    0.000000e+00    0.000000e+00    3.000000e+00    3.000000e+00    0.000000e+00    0.000000e+00    3.000000e+00    3.000000e+00    0.000000e+00    0.000000e+00    3.000000e+00    3.000000e+00    0.000000e+00    0.000000e+00    3.000000e+00    3.000000e+00    0.000000e+00    0.000000e+00    3.000000e+00    3.000000e+00    0.000000e+00    0.000000e+00    3.000000e+00    3.000000e+00    0.000000e+00    0.000000e+00    3.000000e+00    3.000000e+00    0.000000e+00    0.000000e+00    3.000000e+00    3.000000e+00    0.000000e+00    0.000000e+00    3.000000e+00    3.000000e+00    0.000000e+00    0.000000e+00    3.000000e+00    3.000000e+00    0.000000e+00    0.000000e+00    3.000000e+00    3.000000e+00    0.000000e+00    0.000000e+00    3.000000e+00    3.000000e+00    0.000000e+00    0.000000e+00    3.000000e+00    3.000000e+00    0.000000e+00    0.000000e+00    3.000000e+00    3.000000e+00    0.000000e+00    0.000000e+00    3.000000e+00    3.000000e+00    0.000000e+00    0.000000e+00    3.000000e+00    3.000000e+00    0.000000e+00    0.000000e+00    3.000000e+00    3.000000e+00    0.000000e+00    0.000000e+00    3.000000e+00    3.000000e+00    0.000000e+00    0.000000e+00    3.000000e+00    3.000000e+00    0.000000e+00    0.000000e+00    3.000000e+00    3.000000e+00    0.000000e+00    0.000000e+00    3.000000e+00    3.000000e+00    0.000000e+00    0.000000e+00    3.000000e+00    3.000000e+00    0.000000e+00    0.000000e+00    3.000000e+00    3.000000e+00    0.000000e+00    0.000000e+00    3.000000e+00    3.000000e+00    0.000000e+00    0.000000e+00    3.000000e+00    3.000000e+00    0.000000e+00    0.000000e+00    3.000000e+00    3.000000e+00    0.000000e+00    0.000000e+00    3.000000e+00    3.000000e+00    0.000000e+00    0.000000e+00    3.000000e+00    3.000000e+00    0.000000e+00    0.000000e+00    3.000000e+00    3.000000e+00    0.000000e+00    0.000000e+00    3.000000e+00    3.000000e+00    0.000000e+00    0.000000e+00    3.000000e+00    3.000000e+00    0.000000e+00    0.000000e+00    3.000000e+00    3.000000e+00    0.000000e+00    0.000000e+00    3.000000e+00    3.000000e+00    0.000000e+00    0.000000e+00    3.000000e+00    3.000000e+00    0.000000e+00    0.000000e+00    3.000000e+00    3.000000e+00    0.000000e+00    0.000000e+00    3.000000e+00    3.000000e+00    0.000000e+00    0.000000e+00    3.000000e+00    3.000000e+00    0.000000e+00    0.000000e+00    3.000000e+00    3.000000e+00    0.000000e+00    0.000000e+00    3.000000e+00    3.000000e+00    0.000000e+00    0.000000e+00    3.000000e+00    3.000000e+00 
   0.000000e+00    4.000000e+00    0.000000e+00    4.000000e+00    0.000000e+00    4.000000e+00    0.000000e+00    4.000000e+00    0.000000e+00    4.000000e+00    0.000000e+00    4.000000e+00    0.000000e+00    4.000000e+00    0.000000e+00    4.000000e+00    0.000000e+00    4.000000e+00    0.000000e+00    4.000000e+00    0.000000e+00    4.000000e+00    0.000000e+00    4.000000e+00    0.000000e+00    4.000000e+00    0.000000e+00    4.000000e+00    0.000000e+00    4.000000e+00    0.000000e+00    4.000000e+00    0.000000e+00    4.000000e+00    0.000000e+00    4.000000e+00    0.000000e+00    4.000000e+00    0.000000e+00    4.000000e+00    0.000000e+00    4.000000e+00    0.000000e+00    4.000000e+00    0.000000e+00    4.000000e+00    0.000000e+00    4.000000e+00    0.000000e+00    4.000000e+00    0.000000e+00    4.000000e+00    0.000000e+00    4.000000e+00    0.000000e+00    4.000000e+00    0.000000e+00    4.000000e+00    0.000000e+00    4.000000e+00    0.000000e+00    4.000000e+00    0.000000e+00    4.000000e+00    0.000000e+00    4.000000e+00    0.000000e+00    4.000000e+00    0.000000e+00    4.000000e+00    0.000000e+00    4.000000e+00    0.000000e+00    4.000000e+00    0.000000e+00    4.000000e+00    0.000000e+00    4.000000e+00    0.000000e+00    4.000000e+00    0.000000e+00    4.000000e+00    0.000000e+00    4.000000e+00    0.000000e+00    4.000000e+00    0.000000e+00    4.000000e+00    0.000000e+00    4.000000e+00    0.000000e+00    4.000000e+00    0.000000e+00    4.000000e+00    0.000000e+00    4.000000e+00    0.000000e+00    4.000000e+00    0.000000e+00    4.000000e+00    0.000000e+00    4.000000e+00    0.000000e+00    4.000000e+00    0.000000e+00    4.000000e+00    0.000000e+00    4.000000e+00    0.000000e+00    4.000000e+00    0.000000e+00    4.000000e+00    0.000000e+00    4.000000e+00    0.000000e+00    4.000000e+00    0.000000e+00    4.000000e+00    0.000000e+00    4.000000e+00    0.000000e+00    4.000000e+00    0.000000e+00    4.000000e+00    0.000000e+00    4.000000e+00    0.000000e+00    4.000000e+00    0.000000e+00    4.000000e+00    0.000000e+00    4.000000e+00    0.000000e+00    4.000000e+00    0.000000e+00    4.000000e+00    0.000000e+00    4.000000e+00    0.000000e+00    4.000000e+00    0.000000e+00    4.000000e+00    0.000000e+00    4.000000e+00    0.000000e+00    4.000000e+00    0.000000e+00    4.000000e+00    0.000000e+00    4.000000e+00    0.000000e+00    4.000000e+00    0.000000e+00    4.000000e+00    0.000000e+00    4.000000e+00    0.000000e+00    4.000000e+00    0.000000e+00    4.000000e+00    0.000000e+00    4.000000e+00    0.000000e+00    4.000000e+00 
   0.000000e+00    0.000000e+00    1.986574e-02    1.986574e-02    1.619442e-05    1.619442e-05    1.986574e-02    1.986574e-02    4.779984e-05    4.779984e-05    1.973691e-02    1.973691e-02    9.397530e-05    9.397530e-05    1.948547e-02    1.948547e-02    1.538896e-04    1.538896e-04    1.911813e-02    1.911813e-02    2.267098e-04    2.267098e-04    1.864148e-02    1.864148e-02    3.116033e-04    3.116033e-04    1.806216e-02    1.806216e-02    4.077375e-04    4.077375e-04    1.738680e-02    1.738680e-02    5.142798e-04    5.142798e-04    1.662201e-02    1.662201e-02    6.303974e-04    6.303974e-04    1.577442e-02    1.577442e-02    7.552578e-04    7.552578e-04    1.485065e-02    1.485065e-02    8.880283e-04    8.880283e-04    1.385733e-02    1.385733e-02    1.027876e-03    1.027876e-03    1.280108e-02    1.280108e-02    1.173969e-03    1.173969e-03    1.168852e-02    1.168852e-02    1.325474e-03    1.325474e-03    1.052629e-02    1.052629e-02    1.481559e-03    1.481559e-03    9.321000e-03    9.321000e-03    1.641390e-03    1.641390e-03    8.079278e-03    8.079278e-03    1.804136e-03    1.804136e-03    6.807747e-03    6.807747e-03    1.968963e-03    1.968963e-03    5.513033e-03    5.513033e-03    2.135039e-03    2.135039e-03    4.201758e-03    4.201758e-03    2.301532e-03    2.301532e-03    2.880547e-03    2.880547e-03    2.467608e-03    2.467608e-03    1.556024e-03    1.556024e-03    2.632435e-03    2.632435e-03    2.348129e-04    2.348129e-04    2.795181e-03    2.795181e-03   -1.076462e-03   -1.076462e-03    2.955012e-03    2.955012e-03   -2.371177e-03   -2.371177e-03    3.111097e-03    3.111097e-03   -3.642707e-03   -3.642707e-03    3.262602e-03    3.262602e-03   -4.884430e-03   -4.884430e-03    3.408694e-03    3.408694e-03   -6.089720e-03   -6.089720e-03    3.548542e-03    3.548542e-03   -7.251954e-03   -7.251954e-03    3.681313e-03    3.681313e-03   -8.364507e-03   -8.364507e-03    3.806173e-03    3.806173e-03   -9.420756e-03   -9.420756e-03    3.922291e-03    3.922291e-03   -1.041408e-02   -1.041408e-02    4.028833e-03    4.028833e-03   -1.133784e-02   -1.133784e-02    4.124967e-03    4.124967e-03   -1.218544e-02   -1.218544e-02    4.209861e-03    4.209861e-03   -1.295023e-02   -1.295023e-02    4.282681e-03    4.282681e-03   -1.362559e-02   -1.362559e-02    4.342595e-03    4.342595e-03   -1.420491e-02   -1.420491e-02    4.388771e-03    4.388771e-03   -1.468156e-02   -1.468156e-02    4.420376e-03    4.420376e-03   -1.504890e-02   -1.504890e-02    4.436571e-03    4.436571e-03   -1.530034e-02   -1.530034e-02    4.436571e-03    4.436571e-03   -1.542917e-02   -1.542917e-02 
   0.000000e+00    0.000000e+00    0.000000e+00    0.000000e+00   -9.139448e-03   -9.139448e-03   -7.979943e-03   -7.979943e-03   -1.810876e-02   -1.810876e-02   -1.700535e-02   -1.700535e-02   -2.685300e-02   -2.685300e-02   -2.580980e-02   -2.580980e-02   -3.533018e-02   -3.533018e-02   -3.434649e-02   -3.434649e-02   -4.349902e-02   -4.349902e-02   -4.257497e-02   -4.257497e-02   -5.132106e-02   -5.132106e-02   -5.045662e-02   -5.045662e-02   -5.876023e-02   -5.876023e-02   -5.795541e-02   -5.795541e-02   -6.578299e-02   -6.578299e-02   -6.503778e-02   -6.503778e-02   -7.235826e-02   -7.235826e-02   -7.167267e-02   -7.167267e-02   -7.845746e-02   -7.845746e-02   -7.783149e-02   -7.783149e-02   -8.405450e-02   -8.405450e-02   -8.348814e-02   -8.348814e-02   -8.912576e-02   -8.912576e-02   -8.861902e-02   -8.861902e-02   -9.365010e-02   -9.365010e-02   -9.320298e-02   -9.320298e-02   -9.760891e-02   -9.760891e-02   -9.722140e-02   -9.722140e-02   -1.009860e-01   -1.009860e-01   -1.006581e-01   -1.006581e-01   -1.037677e-01   -1.037677e-01   -1.034994e-01   -1.034994e-01   -1.059429e-01   -1.059429e-01   -1.057342e-01   -1.057342e-01   -1.075028e-01   -1.075028e-01   -1.073537e-01   -1.073537e-01   -1.084412e-01   -1.084412e-01   -1.083518e-01   -1.083518e-01   -1.087544e-01   -1.087544e-01   -1.087246e-01   -1.087246e-01   -1.084412e-01   -1.084412e-01   -1.084710e-01   -1.084710e-01   -1.075028e-01   -1.075028e-01   -1.075922e-01   -1.075922e-01   -1.059429e-01   -1.059429e-01   -1.060919e-01   -1.060919e-01   -1.037677e-01   -1.037677e-01   -1.039764e-01   -1.039764e-01   -1.009860e-01   -1.009860e-01   -1.012543e-01   -1.012543e-01   -9.760891e-02   -9.760891e-02   -9.793680e-02   -9.793680e-02   -9.365010e-02   -9.365010e-02   -9.403761e-02   -9.403761e-02   -8.912576e-02   -8.912576e-02   -8.957288e-02   -8.957288e-02   -8.405450e-02   -8.405450e-02   -8.456124e-02   -8.456124e-02   -7.845746e-02   -7.845746e-02   -7.902382e-02   -7.902382e-02   -7.235826e-02   -7.235826e-02   -7.298423e-02   -7.298423e-02   -6.578299e-02   -6.578299e-02   -6.646857e-02   -6.646857e-02   -5.876023e-02   -5.876023e-02   -5.950543e-02   -5.950543e-02   -5.132106e-02   -5.132106e-02   -5.212588e-02   -5.212588e-02   -4.349902e-02   -4.349902e-02   -4.436346e-02   -4.436346e-02   -3.533018e-02   -3.533018e-02   -3.625423e-02   -3.625423e-02   -2.685300e-02   -2.685300e-02   -2.783669e-02   -2.783669e-02   -1.810876e-02   -1.810876e-02   -1.915197e-02   -1.915197e-02   -9.139448e-03   -9.139448e-03   -1.024286e-02   -1.024286e-02    0.000000e+00    0.000000e+00   -1.159505e-03   -1.159505e-03 
   0.000000e+00    0.000000e+00    0.000000e+00    0.000000e+00   -1.312006e-16   -1.312006e-16    0.000000e+00    0.000000e+00   -2.853111e-16   -2.853111e-16    0.000000e+00    0.000000e+00   -4.464943e-16   -4.464943e-16    0.000000e+00    0.000000e+00   -6.092847e-16   -6.092848e-16    0.000000e+00    0.000000e+00   -7.714650e-16   -7.714649e-16    0.000000e+00    0.000000e+00   -9.318504e-16   -9.318505e-16    0.000000e+00    0.000000e+00   -1.089525e-15   -1.089526e-15    0.000000e+00    0.000000e+00   -1.243560e-15   -1.243560e-15    0.000000e+00    0.000000e+00   -1.392938e-15   -1.392938e-15    0.000000e+00    0.000000e+00   -1.536551e-15   -1.536550e-15    0.000000e+00    0.000000e+00   -1.673307e-15   -1.673308e-15    0.000000e+00    0.000000e+00   -1.802114e-15   -1.802114e-15    0.000000e+00    0.000000e+00   -1.921757e-15   -1.921757e-15    0.000000e+00    0.000000e+00   -2.031031e-15   -2.031032e-15    0.000000e+00    0.000000e+00   -2.128757e-15   -2.128757e-15    0.000000e+00    0.000000e+00   -2.213628e-15   -2.213628e-15    0.000000e+00    0.000000e+00   -2.284400e-15   -2.284399e-15    0.000000e+00    0.000000e+00   -2.340102e-15   -2.340101e-15    0.000000e+00    0.000000e+00   -2.380005e-15   -2.380006e-15    0.000000e+00    0.000000e+00   -2.403548e-15   -2.403548e-15    0.000000e+00    0.000000e+00   -2.410249e-15   -2.410249e-15    0.000000e+00    0.000000e+00   -2.399833e-15   -2.399833e-15    0.000000e+00    0.000000e+00   -2.372364e-15   -2.372364e-15    0.000000e+00    0.000000e+00   -2.328143e-15   -2.328143e-15    0.000000e+00    0.000000e+00   -2.267572e-15   -2.267572e-15    0.000000e+00    0.000000e+00   -2.191369e-15   -2.191369e-15    0.000000e+00    0.000000e+00   -2.100291e-15   -2.100291e-15    0.000000e+00    0.000000e+00   -1.995329e-15   -1.995330e-15    0.000000e+00    0.000000e+00   -1.877677e-15   -1.877676e-15    0.000000e+00    0.000000e+00   -1.748254e-15   -1.748254e-15    0.000000e+00    0.000000e+00   -1.608002e-15   -1.608004e-15    0.000000e+00    0.000000e+00   -1.458078e-15   -1.458079e-15    0.000000e+00    0.000000e+00   -1.299533e-15   -1.299533e-15    0.000000e+00    0.000000e+00   -1.133432e-15   -1.133430e-15    0.000000e+00    0.000000e+00   -9.610985e-16   -9.611001e-16    0.000000e+00    0.000000e+00   -7.836216e-16   -7.836211e-16    0.000000e+00    0.000000e+00   -6.015543e-16   -6.015548e-16    0.000000e+00    0.000000e+00   -4.144994e-16   -4.144987e-16    0.000000e+00    0.000000e+00   -2.187809e-16   -2.187811e-16    0.000000e+00    0.000000e+00    0.000000e+00    0.000000e+00    0.000000e+00    0.000000e+00 
  -2.136505e-16   -2.135373e-16    0.000000e+00    0.000000e+00   -7.055282e-16   -7.053281e-16    0.000000e+00    0.000000e+00   -1.316278e-15   -1.316166e-15    0.000000e+00    0.000000e+00   -1.950095e-15   -1.950450e-15    0.000000e+00    0.000000e+00   -2.581437e-15   -2.583843e-15    0.000000e+00    0.000000e+00   -3.210585e-15   -3.210701e-15    0.000000e+00    0.000000e+00   -3.829542e-15   -3.825475e-15    0.000000e+00    0.000000e+00   -4.447447e-15   -4.443433e-15    0.000000e+00    0.000000e+00   -5.070388e-15   -5.062965e-15    0.000000e+00    0.000000e+00   -5.693463e-15   -5.692399e-15    0.000000e+00    0.000000e+00   -6.301716e-15   -6.303619e-15    0.000000e+00    0.000000e+00   -6.881993e-15   -6.885644e-15    0.000000e+00    0.000000e+00   -7.457435e-15   -7.467111e-15    0.000000e+00    0.000000e+00   -8.002540e-15   -8.025203e-15    0.000000e+00    0.000000e+00   -8.533046e-15   -8.548931e-15    0.000000e+00    0.000000e+00   -9.042738e-15   -9.049082e-15    0.000000e+00    0.000000e+00   -9.498816e-15   -9.504852e-15    0.000000e+00    0.000000e+00   -9.868714e-15   -9.872385e-15    0.000000e+00    0.000000e+00   -1.014784e-14   -1.014587e-14    0.000000e+00    0.000000e+00   -1.035904e-14   -1.035398e-14    0.000000e+00    0.000000e+00   -1.049621e-14   -1.048701e-14    0.000000e+00    0.000000e+00   -1.054579e-14   -1.054336e-14    0.000000e+00    0.000000e+00   -1.051797e-14   -1.051453e-14    0.000000e+00    0.000000e+00   -1.038081e-14   -1.038015e-14    0.000000e+00    0.000000e+00   -1.017902e-14   -1.017058e-14    0.000000e+00    0.000000e+00   -9.892317e-15   -9.872093e-15    0.000000e+00    0.000000e+00   -9.529645e-15   -9.499647e-15    0.000000e+00    0.000000e+00   -9.101801e-15   -9.090791e-15    0.000000e+00    0.000000e+00   -8.613856e-15   -8.606181e-15    0.000000e+00    0.000000e+00   -8.073856e-15   -8.071636e-15    0.000000e+00    0.000000e+00   -7.494961e-15   -7.494882e-15    0.000000e+00    0.000000e+00   -6.878405e-15   -6.880623e-15    0.000000e+00    0.000000e+00   -6.229210e-15   -6.213464e-15    0.000000e+00    0.000000e+00   -5.533448e-15   -5.522353e-15    0.000000e+00    0.000000e+00   -4.792931e-15   -4.787134e-15    0.000000e+00    0.000000e+00   -4.030523e-15   -4.024937e-15    0.000000e+00    0.000000e+00   -3.245675e-15   -3.244227e-15    0.000000e+00    0.000000e+00   -2.450337e-15   -2.449170e-15    0.000000e+00    0.000000e+00   -1.652573e-15   -1.651833e-15    0.000000e+00    0.000000e+00   -8.846331e-16   -8.843788e-16    0.000000e+00    0.000000e+00   -2.678881e-16   -2.677442e-16    0.000000e+00    0.000000e+00 
   9.568707e-17    9.568697e-17    0.000000e+00    0.000000e+00    1.304623e-16    1.304626e-16    0.000000e+00    0.000000e+00    1.415076e-16    1.415062e-16    0.000000e+00    0.000000e+00    1.446084e-16    1.446071e-16    0.000000e+00    0.000000e+00    1.447154e-16    1.447209e-16    0.000000e+00    0.000000e+00    1.433920e-16    1.433866e-16    0.000000e+00    0.000000e+00    1.411151e-16    1.411384e-16    0.000000e+00    0.000000e+00    1.379761e-16    1.379687e-16    0.000000e+00    0.000000e+00    1.338446e-16    1.338528e-16    0.000000e+00    0.000000e+00    1.286616e-16    1.286546e-16    0.000000e+00    0.000000e+00    1.223387e-16    1.223280e-16    0.000000e+00    0.000000e+00    1.149251e-16    1.149429e-16    0.000000e+00    0.000000e+00    1.064095e-16    1.064098e-16    0.000000e+00    0.000000e+00    9.659965e-17    9.661465e-17    0.000000e+00    0.000000e+00    8.567111e-17    8.565699e-17    0.000000e+00    0.000000e+00    7.354347e-17    7.348488e-17    0.000000e+00    0.000000e+00    5.990624e-17    5.995992e-17    0.000000e+00    0.000000e+00    4.535127e-17    4.526369e-17    0.000000e+00    0.000000e+00    2.981840e-17    2.986301e-17    0.000000e+00    0.000000e+00    1.370899e-17    1.371660e-17    0.000000e+00    0.000000e+00   -2.892062e-18   -2.899130e-18    0.000000e+00    0.000000e+00   -1.998016e-17   -1.996565e-17    0.000000e+00    0.000000e+00   -3.705666e-17   -3.712759e-17    0.000000e+00    0.000000e+00   -5.405198e-17   -5.402078e-17    0.000000e+00    0.000000e+00   -7.061088e-17   -7.061367e-17    0.000000e+00    0.000000e+00   -8.674623e-17   -8.674377e-17    0.000000e+00    0.000000e+00   -1.019354e-16   -1.018342e-16    0.000000e+00    0.000000e+00   -1.165188e-16   -1.164459e-16    0.000000e+00    0.000000e+00   -1.295725e-16   -1.296056e-16    0.000000e+00    0.000000e+00   -1.418514e-16   -1.418690e-16    0.000000e+00    0.000000e+00   -1.530703e-16   -1.530919e-16    0.000000e+00    0.000000e+00   -1.635409e-16   -1.634667e-16    0.000000e+00    0.000000e+00   -1.725296e-16   -1.725451e-16    0.000000e+00    0.000000e+00   -1.807305e-16   -1.807473e-16    0.000000e+00    0.000000e+00   -1.876414e-16   -1.876652e-16    0.000000e+00    0.000000e+00   -1.932647e-16   -1.932720e-16    0.000000e+00    0.000000e+00   -1.980559e-16   -1.980422e-16    0.000000e+00    0.000000e+00   -2.024691e-16   -2.024673e-16    0.000000e+00    0.000000e+00   -2.080244e-16   -2.080469e-16    0.000000e+00    0.000000e+00   -2.198314e-16   -2.198088e-16    0.000000e+00    0.000000e+00   -2.541448e-16   -2.541845e-16    0.000000e+00    0.000000e+00 
  -9.172793e-03   -9.172793e-03    0.000000e+00    0.000000e+00   -9.072758e-03   -9.072758e-03    0.000000e+00    0.000000e+00   -8.862464e-03   -8.862464e-03    0.000000e+00    0.000000e+00   -8.618048e-03   -8.618048e-03    0.000000e+00    0.000000e+00   -8.329589e-03   -8.329589e-03    0.000000e+00    0.000000e+00   -8.001662e-03   -8.001662e-03    0.000000e+00    0.000000e+00   -7.636401e-03   -7.636401e-03    0.000000e+00    0.000000e+00   -7.236350e-03   -7.236350e-03    0.000000e+00    0.000000e+00   -6.803986e-03   -6.803986e-03    0.000000e+00    0.000000e+00   -6.341795e-03   -6.341795e-03    0.000000e+00    0.000000e+00   -5.852263e-03   -5.852263e-03    0.000000e+00    0.000000e+00   -5.337875e-03   -5.337875e-03    0.000000e+00    0.000000e+00   -4.801117e-03   -4.801117e-03    0.000000e+00    0.000000e+00   -4.244475e-03   -4.244475e-03    0.000000e+00    0.000000e+00   -3.670434e-03   -3.670434e-03    0.000000e+00    0.000000e+00   -3.081479e-03   -3.081479e-03    0.000000e+00    0.000000e+00   -2.480097e-03   -2.480097e-03    0.000000e+00    0.000000e+00   -1.868772e-03   -1.868772e-03    0.000000e+00    0.000000e+00   -1.249991e-03   -1.249991e-03    0.000000e+00    0.000000e+00   -6.262381e-04   -6.262381e-04    0.000000e+00    0.000000e+00    2.990789e-16    6.472680e-16    0.000000e+00    0.000000e+00    6.262381e-04    6.262381e-04    0.000000e+00    0.000000e+00    1.249991e-03    1.249991e-03    0.000000e+00    0.000000e+00    1.868772e-03    1.868772e-03    0.000000e+00    0.000000e+00    2.480097e-03    2.480097e-03    0.000000e+00    0.000000e+00    3.081479e-03    3.081479e-03    0.000000e+00    0.000000e+00    3.670434e-03    3.670434e-03    0.000000e+00    0.000000e+00    4.244475e-03    4.244475e-03    0.000000e+00    0.000000e+00    4.801117e-03    4.801117e-03    0.000000e+00    0.000000e+00    5.337875e-03    5.337875e-03    0.000000e+00    0.000000e+00    5.852263e-03    5.852263e-03    0.000000e+00    0.000000e+00    6.341795e-03    6.341795e-03    0.000000e+00    0.000000e+00    6.803986e-03    6.803986e-03    0.000000e+00    0.000000e+00    7.236350e-03    7.236350e-03    0.000000e+00    0.000000e+00    7.636401e-03    7.636401e-03    0.000000e+00    0.000000e+00    8.001662e-03    8.001662e-03    0.000000e+00    0.000000e+00    8.329589e-03    8.329589e-03    0.000000e+00    0.000000e+00    8.618048e-03    8.618048e-03    0.000000e+00    0.000000e+00    8.862464e-03    8.862464e-03    0.000000e+00    0.000000e+00    9.072758e-03    9.072758e-03    0.000000e+00    0.000000e+00    9.172793e-03    9.172793e-03    0.000000e+00    0.000000e+00 
   5.239595e+06    5.239595e+06    8.526247e+06    8.526247e+06    1.191825e+07    1.191825e+07    1.506888e+07    1.506888e+07    1.803655e+07    1.803655e+07    2.081142e+07    2.081142e+07    2.339514e+07    2.339514e+07    2.578744e+07    2.578744e+07    2.798836e+07    2.798836e+07    2.999789e+07    2.999789e+07    3.181604e+07    3.181604e+07    3.344281e+07    3.344281e+07    3.487819e+07    3.487819e+07    3.612219e+07    3.612219e+07    3.717480e+07    3.717480e+07    3.803603e+07    3.803603e+07    3.870587e+07    3.870587e+07    3.918433e+07    3.918433e+07    3.947141e+07    3.947141e+07    3.956710e+07    3.956710e+07    3.948384e+07    3.948384e+07    3.922162e+07    3.922162e+07    3.876801e+07    3.876801e+07    3.812302e+07    3.812302e+07    3.728665e+07    3.728665e+07    3.625889e+07    3.625889e+07    3.503975e+07    3.503975e+07    3.362922e+07    3.362922e+07    3.202731e+07    3.202731e+07    3.023402e+07    3.023402e+07    2.824934e+07    2.824934e+07    2.607328e+07    2.607328e+07    2.370583e+07    2.370583e+07    2.114700e+07    2.114700e+07    1.839675e+07    1.839675e+07    1.545537e+07    1.545537e+07    1.232112e+07    1.232112e+07    9.004239e+06    9.004239e+06    5.444050e+06    5.444050e+06   -2.000711e+06    2.000711e+06   -4.639496e-06   -2.719568e-06   -2.237209e-06   -2.157586e-06   -2.188580e-06    2.255046e-06   -2.176707e-06   -2.205705e-06   -2.175267e-06    2.297514e-06    2.340617e-06   -2.222541e-06   -2.372089e-06   -2.506842e-06   -2.245973e-06    2.496714e-06   -2.796526e-06    2.749309e-06    2.606389e-06   -2.618139e-06    2.774659e-06    2.738331e-06   -2.848073e-06    2.711792e-06   -2.756157e-06    2.646653e-06    2.747131e-06   -2.686257e-06   -2.553957e-06    2.462838e-06    2.445936e-06   -2.525521e-06   -2.603656e-06   -2.491510e-06    2.355227e-06   -2.322783e-06    2.286372e-06   -2.192845e-06    2.315876e-06   -2.945884e-06   -5.453336e-06    6.938894e-07    0.000000e+00   -8.148173e+07   -8.148173e+07   -2.576679e+07   -2.576679e+07   -7.753989e+07   -7.753989e+07   -5.028705e+07   -5.028705e+07   -7.330877e+07   -7.330877e+07   -7.346932e+07   -7.346932e+07   -6.912638e+07   -6.912638e+07   -9.532900e+07   -9.532900e+07   -6.493578e+07   -6.493578e+07   -1.158635e+08   -1.158635e+08   -6.074656e+07   -6.074656e+07   -1.350732e+08   -1.350732e+08   -5.655711e+07   -5.655711e+07   -1.529582e+08   -1.529582e+08   -5.236770e+07   -5.236770e+07   -1.695183e+08   -1.695183e+08   -4.817829e+07   -4.817829e+07   -1.847536e+08   -1.847536e+08   -4.398887e+07   -4.398887e+07   -1.986641e+08   -1.986641e+08   -3.979945e+07   -3.979945e+07   -2.112498e+08   -2.112498e+08   -3.561004e+07   -3.561004e+07   -2.225107e+08   -2.225107e+08   -3.142062e+07   -3.142062e+07   -2.324468e+08   -2.324468e+08   -2.723120e+07   -2.723120e+07   -2.410580e+08   -2.410580e+08   -2.304179e+07   -2.304179e+07   -2.483445e+08   -2.483445e+08   -1.885237e+07   -1.885237e+07   -2.543061e+08   -2.543061e+08   -1.466296e+07   -1.466296e+07   -2.589430e+08   -2.589430e+08   -1.047354e+07   -1.047354e+07   -2.622550e+08   -2.622550e+08   -6.284124e+06   -6.284124e+06   -2.642422e+08   -2.642422e+08   -2.094708e+06   -2.094708e+06   -2.649046e+08   -2.649046e+08    2.094708e+06    2.094708e+06   -2.642422e+08   -2.642422e+08    6.284124e+06    6.284124e+06   -2.622550e+08   -2.622550e+08    1.047354e+07    1.047354e+07   -2.589430e+08   -2.589430e+08    1.466296e+07    1.466296e+07   -2.543061e+08   -2.543061e+08    1.885237e+07    1.885237e+07   -2.483445e+08   -2.483445e+08    2.304179e+07    2.304179e+07   -2.410580e+08   -2.410580e+08    2.723120e+07    2.723120e+07   -2.324468e+08   -2.324468e+08    3.142062e+07    3.142062e+07   -2.225107e+08   -2.225107e+08    3.561004e+07    3.561004e+07   -2.112498e+08   -2.112498e+08    3.979945e+07    3.979945e+07   -1.986641e+08   -1.986641e+08    4.398887e+07    4.398887e+07   -1.847536e+08   -1.847536e+08    4.817829e+07    4.817829e+07   -1.695183e+08   -1.695183e+08    5.236770e+07    5.236770e+07   -1.529582e+08   -1.529582e+08    5.655711e+07    5.655711e+07   -1.350732e+08   -1.350732e+08    6.074656e+07    6.074656e+07   -1.158635e+08   -1.158635e+08    6.493578e+07    6.493578e+07   -9.532900e+07   -9.532900e+07    6.912638e+07    6.912638e+07   -7.346932e+07   -7.346932e+07    7.330877e+07    7.330877e+07   -5.028705e+07   -5.028705e+07    7.753989e+07    7.753989e+07   -2.576679e+07   -2.576679e+07    8.148173e+07    8.148173e+07    0.000000e+00    0.000000e+00    7.730036e+07    7.730036e+07    7.356080e+07    7.356080e+07    6.954681e+07    6.954681e+07    6.557904e+07    6.557904e+07    6.160349e+07    6.160349e+07    5.762925e+07    5.762925e+07    5.365479e+07    5.365479e+07    4.968036e+07    4.968036e+07    4.570593e+07    4.570593e+07    4.173151e+07    4.173151e+07    3.775708e+07    3.775708e+07    3.378265e+07    3.378265e+07    2.980822e+07    2.980822e+07    2.583379e+07    2.583379e+07    2.185936e+07    2.185936e+07    1.788493e+07    1.788493e+07    1.391050e+07    1.391050e+07    9.936073e+06    9.936073e+06    5.961644e+06    5.961644e+06    1.987215e+06    1.987215e+06   -1.987215e+06   -1.987215e+06   -5.961644e+06   -5.961644e+06   -9.936073e+06   -9.936073e+06   -1.391050e+07   -1.391050e+07   -1.788493e+07   -1.788493e+07   -2.185936e+07   -2.185936e+07   -2.583379e+07   -2.583379e+07   -2.980822e+07   -2.980822e+07   -3.378265e+07   -3.378265e+07   -3.775708e+07   -3.775708e+07   -4.173151e+07   -4.173151e+07   -4.570593e+07   -4.570593e+07   -4.968036e+07   -4.968036e+07   -5.365479e+07   -5.365479e+07   -5.762925e+07   -5.762925e+07   -6.160349e+07   -6.160349e+07   -6.557904e+07   -6.557904e+07   -6.954681e+07   -6.954681e+07   -7.356080e+07   -7.356080e+07   -7.730036e+07   -7.730036e+07 