TITLE = "FEM Volume Output"
VARIABLES = "X", "Y", "Z", "U", "V", "W", "TotalDisp", "Temp", "VonMises"
ZONE T="Time=0.0000", STRANDID=1, SOLUTIONTIME=0.000000e+00, NODES=9, ELEMENTS=12, ZONETYPE=FETETRAHEDRON, DATAPACKING=BLOCK, VARLOCATION=([9]=CELLCENTERED)
   5.000000e-03    0.000000e+00    5.000000e-03    0.000000e+00    4.999671e-03   -7.029269e-07   -5.302007e-07    4.999078e-03    2.499819e-03 
   5.000000e-03    5.000000e-03    0.000000e+00    0.000000e+00    4.998028e-03    4.998723e-03   -1.053749e-06   -1.090056e-06    2.499565e-03 
   0.000000e+00    0.000000e+00    0.000000e+00    0.000000e+00    5.003618e-03    5.000483e-03    4.999692e-03    5.000575e-03    2.501303e-03 
   0.000000e+00    0.000000e+00    0.000000e+00    0.000000e+00   -3.288947e-07   -7.029269e-07   -5.302007e-07   -9.222888e-07   -1.807684e-07 
   0.000000e+00    0.000000e+00    0.000000e+00    0.000000e+00   -1.971924e-06   -1.276844e-06   -1.053749e-06   -1.090056e-06   -4.354355e-07 
   0.000000e+00    0.000000e+00    0.000000e+00    0.000000e+00    3.617686e-06    4.831108e-07   -3.080090e-07    5.750269e-07    3.032160e-07 
   0.000000e+00    0.000000e+00    0.000000e+00    0.000000e+00    4.133316e-06    1.535524e-06    1.219168e-06    1.539316e-06    5.605544e-07 
   0.000000e+00    0.000000e+00    0.000000e+00    0.000000e+00    0.000000e+00    0.000000e+00    0.000000e+00    0.000000e+00    0.000000e+00 
   3.128455e+07    3.128455e+07    4.939716e+07    1.347613e+08    2.021610e+07    4.109583e+07    2.660210e+07    1.374863e+08    9.419079e+07    2.365058e+07 
   3.246495e+07    7.602744e+07 
1 9 2 3
2 9 4 3
1 8 9 3
1 5 2 9
3 4 7 9
2 4 9 6
3 7 8 9
1 9 8 5
2 9 5 6
4 7 9 6
6 7 9 8
5 8 6 9
