TITLE = "FEM Volume Output"
VARIABLES = "X", "Y", "Z", "U", "V", "W", "TotalDisp", "Temp", "VonMises"
ZONE T="Time=0.0000", STRANDID=1, SOLUTIONTIME=0.000000e+00, NODES=466, ELEMENTS=846, ZONETYPE=FETETRAHEDRON, DATAPACKING=BLOCK, VARLOCATION=([9]=CELLCENTERED)
   2.175087e-02    1.897133e-02    1.396656e-02    1.174167e-02    1.452134e-02    1.952604e-02    2.500000e-02    2.250000e-02    1.750000e-02    1.500000e-02 
   1.750000e-02    2.250000e-02    2.429284e-02    2.221916e-02    1.889333e-02    1.450136e-02    9.293426e-03    3.560612e-03   -2.372816e-03   -8.173302e-03 
  -1.351428e-02   -1.809381e-02   -2.165556e-02   -2.399718e-02   -2.498749e-02   -2.457224e-02   -2.277006e-02   -1.968923e-02   -1.550097e-02   -1.044048e-02 
  -4.796127e-03    1.114926e-03    6.958482e-03    1.240500e-02    1.714704e-02    2.091469e-02    2.349808e-02    2.474898e-02    2.459639e-02    2.305035e-02 
   2.019468e-02    1.619149e-02    1.126623e-02    5.692922e-03   -2.111988e-04   -6.116161e-03   -1.168909e-02   -1.661736e-02   -2.062488e-02   -2.348355e-02 
  -2.503745e-02   -2.519543e-02   -2.395003e-02   -2.137473e-02   -1.761138e-02   -1.287732e-02   -7.438625e-03   -1.602094e-03    4.300568e-03    9.937069e-03 
   1.498728e-02    1.916630e-02    2.223809e-02    2.402606e-02    2.443117e-02    2.342852e-02    2.107148e-02    1.749519e-02    1.289788e-02    7.538721e-03 
   1.718404e-03   -4.237548e-03   -9.994214e-03   -1.522877e-02   -1.964633e-02   -2.299965e-02   -2.510409e-02   -2.583561e-02   -2.516103e-02   -2.311633e-02 
  -1.981643e-02   -1.545232e-02   -1.026952e-02   -4.562300e-03    1.345334e-03    7.119032e-03    1.243114e-02    1.698237e-02    2.051250e-02    2.282123e-02 
   2.377886e-02    2.332613e-02    2.148943e-02    1.837078e-02    1.414185e-02    9.041821e-03    3.355254e-03   -2.599009e-03   -8.486913e-03   -1.397870e-02 
  -1.876477e-02   -2.257897e-02   -2.520804e-02   -2.650338e-02   -2.639680e-02   -2.489526e-02   -2.208343e-02   -1.812327e-02   -1.324039e-02   -7.712711e-03 
  -1.852619e-03    4.005995e-03    9.531544e-03    1.441091e-02    1.836472e-02    2.117070e-02    2.266706e-02    2.276586e-02    2.146244e-02    1.882529e-02 
   1.500165e-02    1.020592e-02    4.704152e-03   -1.194126e-03   -7.159646e-03   -1.285776e-02   -1.796896e-02   -2.220993e-02   -2.534061e-02   -2.718879e-02 
  -2.765359e-02   -2.670925e-02   -2.441302e-02   -2.089678e-02   -1.635994e-02   -1.106279e-02   -5.303491e-03    5.881071e-04    6.278338e-03    1.144371e-02 
   1.578880e-02    1.907029e-02    2.109631e-02    1.267401e-02    1.304848e-02    1.392882e-02    6.810793e-03    2.108060e-02    1.762689e-02    2.557464e-03 
   1.099938e-02    1.413910e-02    1.034677e-02    8.937322e-03    8.113154e-03    6.436105e-03    3.357169e-03    3.514326e-03    2.581112e-03   -4.017740e-03 
  -1.995429e-04   -5.696570e-03   -1.027842e-02   -1.494954e-02   -1.822754e-02   -1.278232e-02   -1.996391e-02   -1.368139e-02   -1.906692e-02   -1.471234e-02 
  -2.039038e-02   -1.505805e-02   -1.930115e-02   -1.927374e-02   -1.451335e-02   -1.654306e-02   -1.351251e-02   -1.412043e-02   -1.159297e-02   -1.032896e-02 
  -1.212130e-02   -8.447841e-03   -5.525889e-03   -7.635754e-03   -4.959855e-03   -6.044577e-04   -4.827722e-04   -4.251786e-04    4.803292e-03    4.926392e-03 
   9.486578e-03    1.445909e-02    1.740776e-02    1.220229e-02    1.769477e-02    1.938498e-02    1.395221e-02    2.028064e-02    1.466818e-02    1.945385e-02 
   1.484930e-02    1.858899e-02    1.226351e-02    9.253451e-03    2.386235e-03   -3.866497e-03    6.002344e-03    3.196081e-03   -2.948686e-03   -5.153005e-07 
   3.759401e-03   -2.143427e-03    1.782442e-03   -3.374083e-03    6.946757e-05   -6.961585e-03   -6.834387e-03   -1.589763e-02   -1.186182e-02   -1.521244e-02 
  -1.754607e-02   -2.216118e-02   -1.554047e-02   -2.152838e-02   -1.559958e-02   -1.875193e-02   -1.525601e-02   -1.861504e-02   -1.439586e-02   -1.594091e-02 
  -1.659246e-02   -1.233398e-02   -1.152893e-02   -1.042444e-02   -8.176731e-03   -7.545284e-03   -3.599707e-03   -5.644586e-03   -3.574693e-03    1.603555e-03 
  -5.207996e-04    3.020985e-04    6.431528e-03    6.670471e-03    4.803575e-03    1.120949e-02    1.145448e-02    1.332303e-02    1.708478e-02    1.641565e-02 
   1.947260e-02    2.234350e-02    1.532901e-02    1.916420e-02    1.439553e-02    1.146579e-02    9.184131e-03    9.880307e-03    3.091070e-03   -1.913101e-03 
  -2.503332e-03   -1.931980e-03   -6.983831e-03   -8.050729e-03   -5.895452e-03   -1.448097e-02   -8.428950e-03   -1.482877e-02   -1.635694e-02   -2.293567e-02 
   6.448609e-03    1.079672e-02    1.311152e-02   -7.088501e-03   -9.901762e-03   -1.359680e-02   -2.062860e-02   -1.564002e-02   -2.110541e-02   -2.035222e-02 
  -1.580546e-02   -1.897486e-02   -1.531338e-02   -1.752725e-02   -1.400662e-02   -1.437657e-02   -1.559785e-02   -1.149278e-02   -1.008206e-02   -9.683609e-03 
  -7.651626e-03   -2.490713e-03   -4.456178e-03   -2.857361e-03    3.199157e-03    1.247817e-03    1.414456e-03    8.086343e-03    6.319936e-03    5.147656e-03 
   1.214753e-02    1.253393e-02    8.980540e-03    1.561956e-02    1.600774e-02    1.157697e-02    1.828579e-02    1.811459e-02    1.338282e-02    1.850700e-02 
   1.899029e-02    1.378637e-02    1.735134e-02    1.774281e-02    1.284870e-02    1.472157e-02    1.511399e-02    1.086798e-02    9.219309e-03    1.155554e-02 
   7.475632e-03    4.145579e-03    6.794736e-03    3.772468e-03   -9.681124e-04   -5.636886e-04   -9.239838e-04   -8.801114e-03   -6.103038e-03   -5.956656e-03 
  -1.385388e-02   -1.144081e-02   -9.869452e-03   -1.760721e-02   -1.559646e-02   -1.285126e-02   -2.017171e-02   -1.972987e-02   -1.535369e-02   -2.166412e-02 
  -2.121078e-02   -1.780554e-02   -1.690550e-02   -2.060588e-02   -1.490533e-02   -1.625420e-02   -1.356423e-02   -1.178521e-02   -1.097991e-02   -8.623695e-03 
  -8.280645e-03   -4.180022e-03   -5.914607e-03   -4.276811e-03    1.473574e-03   -1.469258e-03    5.112140e-03    2.005400e-03    9.251457e-03    7.687998e-03 
   5.874484e-03    1.305172e-02    1.190057e-02    8.876800e-03    1.571768e-02    1.620537e-02    1.146063e-02    1.735567e-02    1.785656e-02    1.268327e-02 
   1.721958e-02    1.807359e-02    1.272706e-02    1.535566e-02    1.684716e-02    1.155483e-02    1.240247e-02    1.292046e-02    8.937451e-03    6.020407e-03 
   8.647807e-03    4.941021e-03    4.920308e-04    3.363918e-03    8.672168e-04   -4.795711e-03   -1.866703e-03   -3.096122e-03   -9.703829e-03   -9.168133e-03 
  -7.687141e-03   -1.642632e-02   -1.402415e-02   -1.205873e-02   -2.005829e-02   -1.814409e-02   -1.498320e-02   -2.216595e-02   -2.079396e-02   -1.678438e-02 
  -2.295269e-02   -2.236853e-02   -1.765829e-02   -2.238709e-02   -2.179533e-02   -1.411857e-02   -1.022736e-02   -7.359684e-03   -1.363381e-02   -1.902101e-02 
  -1.636373e-02   -1.690369e-02    1.696108e-02    1.458433e-02   -2.003760e-02    1.055757e-02    1.505855e-02    1.533932e-02   -1.120142e-02    5.424306e-03 
  -1.177821e-02    1.417285e-02    1.242656e-02   -1.996698e-02    1.763224e-02   -1.481395e-02    1.384019e-02    1.331757e-02    1.701934e-02    1.452623e-03 
   4.146251e-03    3.103344e-03   -9.674687e-03   -2.043732e-02    1.974296e-02    2.120218e-02    1.527866e-02    2.804560e-03   -2.192230e-02   -2.274334e-02 
  -5.612146e-03   -1.273010e-02    1.670260e-02    1.320680e-02    1.761864e-02    1.952631e-02   -7.448602e-04    1.620471e-02   -4.141475e-04    1.808747e-02 
  -2.090340e-02   -1.999624e-02   -1.179878e-02   -1.616261e-02   -1.951128e-02   -5.137974e-03    9.920684e-04   -1.661584e-02   -1.908523e-02    1.954601e-02 
   1.940600e-02    7.986429e-03   -1.775163e-02    1.847064e-03    1.194173e-02   -1.868543e-02 
   1.028995e-01    1.070735e-01    1.067532e-01    1.022588e-01    9.808467e-02    9.840508e-02   -2.832769e-18    4.330127e-03    4.330127e-03    1.734724e-18 
  -4.330127e-03   -4.330127e-03    7.580525e-04    1.514820e-03    2.269825e-03    3.023346e-03    3.774674e-03    4.522560e-03    5.269699e-03    6.012918e-03 
   6.759980e-03    7.511676e-03    8.267504e-03    9.031122e-03    9.800492e-03    1.057894e-02    1.136618e-02    1.216404e-02    1.296856e-02    1.378234e-02 
   1.460478e-02    1.543180e-02    1.626071e-02    1.708562e-02    1.790424e-02    1.871266e-02    1.950625e-02    2.028246e-02    2.104065e-02    2.177916e-02 
   2.249859e-02    2.320080e-02    2.388740e-02    2.456400e-02    2.523495e-02    2.590376e-02    2.657923e-02    2.726299e-02    2.796021e-02    2.867811e-02 
   2.941913e-02    3.018767e-02    3.098115e-02    3.180251e-02    3.264824e-02    3.351652e-02    3.440009e-02    3.529605e-02    3.619779e-02    3.709705e-02 
   3.798622e-02    3.885562e-02    3.970016e-02    4.051341e-02    4.129185e-02    4.203384e-02    4.273888e-02    4.341049e-02    4.405199e-02    4.466905e-02 
   4.526975e-02    4.586396e-02    4.646151e-02    4.707096e-02    4.769896e-02    4.835987e-02    4.906026e-02    4.980406e-02    5.059576e-02    5.143143e-02 
   5.230732e-02    5.322504e-02    5.417463e-02    5.514305e-02    5.612294e-02    5.710380e-02    5.807083e-02    5.901196e-02    5.991697e-02    6.077670e-02 
   6.158536e-02    6.233923e-02    6.303749e-02    6.368336e-02    6.428221e-02    6.484228e-02    6.537556e-02    6.589271e-02    6.640868e-02    6.693614e-02 
   6.749227e-02    6.809145e-02    6.874358e-02    6.945480e-02    7.023062e-02    7.107145e-02    7.197341e-02    7.293116e-02    7.392980e-02    7.496474e-02 
   7.601706e-02    7.707210e-02    7.811308e-02    7.912566e-02    8.009346e-02    8.100435e-02    8.184928e-02    8.262245e-02    8.332272e-02    8.395252e-02 
   8.451761e-02    8.502928e-02    8.549926e-02    8.594511e-02    8.638718e-02    8.684280e-02    8.733020e-02    8.786220e-02    8.845767e-02    8.912856e-02 
   8.988043e-02    9.071636e-02    9.162981e-02    9.261543e-02    9.366382e-02    9.475429e-02    9.587380e-02    9.700120e-02    9.811827e-02    9.920148e-02 
   1.002373e-01    1.012060e-01    1.020963e-01    9.644629e-02    7.352945e-03    4.013098e-03    1.032524e-01   -3.191454e-03    1.058450e-01    1.018506e-01 
   1.033910e-01   -2.556802e-03    4.562959e-03    8.490723e-03   -1.311417e-03    4.568667e-03   -5.372750e-04    9.409823e-03    4.932031e-03    1.060058e-02 
   5.400784e-03    9.082145e-04    1.070851e-02    3.485246e-03    1.266203e-02    1.005368e-02    1.383885e-02    1.002228e-02    4.615935e-03    1.015578e-02 
   1.529273e-02    1.056004e-02    1.604122e-02    5.674203e-03    1.118458e-02    6.921352e-03    1.173522e-02    1.762951e-02    1.242619e-02    1.843273e-02 
   8.034046e-03    1.331342e-02    1.932218e-02    8.919937e-03    1.416045e-02    2.017711e-02    1.017993e-02    1.518619e-02    2.111483e-02    1.111779e-02 
   2.090404e-02    1.379046e-02    2.306528e-02    2.029351e-02    1.441512e-02    2.424489e-02    2.024556e-02    2.552349e-02    2.060950e-02    1.584868e-02 
   2.105272e-02    1.658103e-02    2.630970e-02    1.904052e-02    2.896326e-02    3.010000e-02    2.028653e-02    2.185941e-02    2.082738e-02    2.309501e-02 
   9.359871e-02    9.209622e-02    1.001426e-01    1.011218e-01    9.349569e-02    9.078867e-02    2.948189e-02    3.232259e-02    2.251828e-02    3.245967e-02 
   2.489469e-02    3.371303e-02    3.166336e-02    3.501210e-02    3.156019e-02    2.588529e-02    3.159812e-02    3.654322e-02    3.197076e-02    3.733703e-02 
   2.695950e-02    3.257491e-02    2.828042e-02    3.314081e-02    3.904205e-02    3.385687e-02    3.990975e-02    2.947662e-02    3.478764e-02    4.086972e-02 
   3.043295e-02    3.568058e-02    4.178686e-02    3.178675e-02    3.676106e-02    4.278203e-02    3.278210e-02    4.257654e-02    3.549474e-02    4.551757e-02 
   4.686172e-02    3.696692e-02    3.835796e-02    3.755687e-02    3.962295e-02    4.605588e-02    4.899684e-02    3.913230e-02    4.894022e-02    4.126425e-02 
   5.015774e-02    4.799756e-02    4.157896e-02    5.127780e-02    4.764843e-02    5.239347e-02    4.788790e-02    4.272875e-02    5.258096e-02    5.425363e-02 
   1.482160e-02    3.646277e-02    2.034314e-02    4.732406e-03    9.802274e-02    4.676053e-02    4.411903e-02    5.019043e-02    5.543944e-02    4.508565e-02 
   5.073612e-02    4.632536e-02    5.127637e-02    5.706811e-02    5.197247e-02    5.793542e-02    4.749683e-02    5.290301e-02    5.892403e-02    4.892446e-02 
   5.403361e-02    6.047809e-02    5.000801e-02    5.527952e-02    6.161544e-02    5.114350e-02    5.635703e-02    6.264532e-02    5.217902e-02    5.734018e-02 
   6.360689e-02    5.360472e-02    5.848127e-02    6.462395e-02    5.462138e-02    5.946165e-02    6.593793e-02    5.552918e-02    6.054689e-02    6.684091e-02 
   5.645726e-02    6.145396e-02    6.762701e-02    5.762395e-02    6.243758e-02    6.841788e-02    5.841523e-02    6.325213e-02    6.941129e-02    5.910293e-02 
   6.413672e-02    7.009836e-02    5.980489e-02    6.488042e-02    7.071647e-02    6.071329e-02    6.570699e-02    7.166258e-02    6.137346e-02    6.658219e-02 
   7.237125e-02    6.207089e-02    6.734410e-02    7.305561e-02    6.273743e-02    6.806494e-02    7.375157e-02    6.374912e-02    6.895873e-02    7.457217e-02 
   6.456889e-02    7.449621e-02    6.735840e-02    7.644924e-02    7.399856e-02    7.782019e-02    7.403991e-02    6.875950e-02    7.430858e-02    7.962415e-02 
   7.484456e-02    8.057322e-02    7.009275e-02    7.565722e-02    7.166981e-02    7.633329e-02    8.256528e-02    7.717593e-02    8.353808e-02    7.304629e-02 
   7.822267e-02    8.457202e-02    7.409973e-02    7.918394e-02    8.551228e-02    7.550598e-02    8.029401e-02    8.647768e-02    7.647175e-02    8.122838e-02 
   8.767779e-02    7.730669e-02    8.224020e-02    8.847165e-02    7.813414e-02    8.306683e-02    8.914499e-02    7.913927e-02    8.394669e-02    9.008137e-02 
   7.980533e-02    8.481790e-02    9.070887e-02    8.044712e-02    8.552500e-02    9.126873e-02    8.101013e-02    8.615744e-02    9.180887e-02    8.180338e-02 
   8.690782e-02    9.271069e-02    8.242214e-02    8.774830e-02    9.343552e-02    8.311911e-02    8.851586e-02    9.416968e-02    8.382150e-02    8.926914e-02 
   9.494187e-02    8.493667e-02    9.023057e-02    9.587141e-02    8.586588e-02    9.524221e-02    9.912977e-02    9.306051e-02    8.895286e-02    8.730621e-02 
   8.939552e-02    6.846701e-02    2.635782e-02    1.774075e-02    6.582127e-02    1.236891e-02   -2.209009e-03    3.406959e-02    2.109361e-03    4.359073e-02 
   2.710810e-02    9.578229e-02    1.052355e-01    9.717466e-02    6.719586e-03    1.190526e-02    2.226009e-02    2.791355e-02    2.720735e-02    2.942089e-02 
   9.834969e-02    9.318462e-02    3.127621e-02    3.297457e-02    4.442082e-02    4.614050e-02    4.801469e-02    4.954434e-02    5.351669e-02    7.557844e-02 
   9.892479e-02    9.043624e-02    6.004680e-02    6.374231e-02    8.186527e-02    5.613301e-04    9.679743e-02    1.022176e-01    4.640765e-02    6.238839e-02 
   6.926346e-02    5.066273e-02    3.329024e-02    3.227383e-02    3.016962e-02    7.543158e-02    7.666213e-02    1.192220e-02    1.096456e-02    4.132779e-02 
   3.999622e-02    2.389762e-02    7.282535e-02    2.469749e-02    1.799745e-02    9.266679e-03 
  -1.136893e-04   -1.131302e-04   -1.113296e-04   -1.100975e-04   -1.100405e-04   -1.121414e-04    0.000000e+00    0.000000e+00    0.000000e+00    0.000000e+00 
   0.000000e+00    0.000000e+00   -5.891654e-03   -1.145176e-02   -1.636665e-02   -2.035825e-02   -2.320344e-02   -2.474165e-02   -2.488383e-02   -2.362662e-02 
  -2.103716e-02   -1.726298e-02   -1.251675e-02   -7.064767e-03   -1.214624e-03    4.702780e-03    1.035318e-02    1.541867e-02    1.961491e-02    2.270188e-02 
   2.450808e-02    2.493197e-02    2.394609e-02    2.160921e-02    1.805171e-02    1.347355e-02    8.135176e-03    2.335079e-03   -3.598333e-03   -9.331927e-03 
  -1.454075e-02   -1.893230e-02   -2.226032e-02   -2.433510e-02   -2.504045e-02   -2.433814e-02   -2.226498e-02   -1.894175e-02   -1.455327e-02   -9.345996e-03 
  -3.615589e-03    2.317280e-03    8.116788e-03    1.345608e-02    1.803266e-02    2.158966e-02    2.392809e-02    2.491266e-02    2.448968e-02    2.268471e-02 
   1.959527e-02    1.539851e-02    1.033113e-02    4.676854e-03   -1.243291e-03   -7.097439e-03   -1.255398e-02   -1.730664e-02   -2.108686e-02   -2.368127e-02 
  -2.494639e-02   -2.480793e-02   -2.327476e-02   -2.043337e-02   -1.644268e-02   -1.152890e-02   -5.969534e-03   -7.594059e-05    5.817969e-03    1.138232e-02 
   1.630032e-02    2.029614e-02    2.314466e-02    2.468292e-02    2.482668e-02    2.356687e-02    2.097328e-02    1.719554e-02    1.244357e-02    6.986798e-03 
   1.132538e-03   -4.789532e-03   -1.044460e-02   -1.551552e-02   -1.971389e-02   -2.280486e-02   -2.461430e-02   -2.503763e-02   -2.405429e-02   -2.171762e-02 
  -1.815911e-02   -1.358068e-02   -8.240351e-03   -2.438735e-03    3.496734e-03    9.231611e-03    1.444231e-02    1.883507e-02    2.216195e-02    2.423495e-02 
   2.493760e-02    2.422943e-02    2.215209e-02    1.882223e-02    1.442524e-02    9.212221e-03    3.474909e-03   -2.462328e-03   -8.265123e-03   -1.360639e-02 
  -1.818397e-02   -2.174227e-02   -2.407801e-02   -2.506041e-02   -2.463555e-02   -2.282460e-02   -1.973197e-02   -1.553150e-02   -1.045931e-02   -4.802149e-03 
   1.121068e-03    6.975401e-03    1.243180e-02    1.718364e-02    2.096086e-02    2.355271e-02    2.481142e-02    2.466519e-02    2.312491e-02    2.027348e-02 
   1.627513e-02    1.135422e-02    5.786095e-03    7.918841e-03   -1.832616e-02   -7.178655e-03    1.415808e-02   -7.859714e-03    7.757529e-03    2.164226e-02 
   6.235296e-03   -1.224461e-02   -1.137867e-02   -1.897532e-02   -1.720105e-02   -1.365611e-02   -1.920979e-02   -2.018963e-02   -1.480184e-02   -1.985701e-02 
  -1.501407e-02   -1.896339e-02   -1.298060e-02   -1.008667e-02   -1.230644e-02   -8.629318e-03   -6.651780e-03   -6.738060e-03   -2.560601e-03   -3.414316e-03 
   2.011161e-03   -2.693802e-04    6.434738e-03    4.023053e-03    3.911217e-03    1.094669e-02    6.564971e-03    1.435780e-02    9.538375e-03    1.721452e-02 
   1.580562e-02    1.239540e-02    1.924099e-02    1.842463e-02    1.414181e-02    1.996381e-02    1.994677e-02    1.495843e-02    1.934082e-02    1.933439e-02 
   1.331585e-02    1.075389e-02    1.303888e-02    9.140018e-03    6.791774e-03    7.494018e-03    5.382478e-03   -1.763532e-04    2.660293e-03   -2.005777e-03 
  -8.425090e-04   -6.566641e-03   -1.089167e-02   -1.544639e-02   -1.708466e-02   -2.212797e-02   -2.194529e-02   -1.550603e-02   -2.128856e-02   -1.551010e-02 
   1.616433e-02    2.242219e-02    1.477577e-02    2.120319e-02    1.613946e-02    2.141312e-02   -1.463127e-02   -1.499018e-02   -1.428048e-02   -8.442356e-03 
  -3.718216e-03   -4.688779e-03   -3.284239e-03    1.243523e-03   -1.181536e-03    4.665731e-03    2.282025e-03    9.444942e-03    5.322110e-03    1.313818e-02 
   1.084290e-02    8.989732e-03    1.625855e-02    1.107865e-02    1.854345e-02    1.312176e-02    1.977563e-02    1.913454e-02    1.460218e-02    1.986290e-02 
   1.990417e-02    1.492530e-02    1.869940e-02    1.866060e-02    1.399577e-02    1.610556e-02    1.608183e-02    8.768459e-03    4.565957e-03   -2.322052e-03 
  -9.711840e-03   -3.659534e-04   -1.213395e-03   -8.753930e-03   -4.259515e-03   -1.045152e-02   -1.919487e-02   -1.529490e-02   -1.668746e-02   -1.773107e-02 
  -2.227095e-02   -1.556229e-02   -1.776307e-02   -1.996888e-02   -1.429549e-02   -1.553582e-02   -1.304061e-02   -1.347782e-02   -6.212571e-03   -1.624610e-03 
   1.389338e-02    1.045337e-02   -7.729754e-03   -1.358964e-02    2.289140e-02   -8.263687e-03   -5.884037e-03   -2.715013e-03    2.943694e-03    5.421343e-04 
   1.281602e-03    7.704181e-03    4.018252e-03    1.150917e-02    7.229304e-03    1.498834e-02    1.323065e-02    1.058393e-02    1.786243e-02    1.781196e-02 
   1.336217e-02    1.991201e-02    1.958641e-02    1.482109e-02    1.945223e-02    1.981926e-02    1.473582e-02    1.762763e-02    1.859419e-02    1.359156e-02 
   1.475771e-02    1.473987e-02    1.104557e-02    1.056791e-02    1.054959e-02    7.902897e-03    3.622796e-03    5.911362e-03    3.565767e-03   -1.889068e-03 
   4.687309e-04   -5.491866e-04   -6.899327e-03   -6.917747e-03   -5.196830e-03   -1.178631e-02   -1.180284e-02   -8.861299e-03   -1.692592e-02   -1.554207e-02 
  -1.221207e-02   -1.922808e-02   -1.842180e-02   -1.415816e-02   -2.005338e-02   -2.005454e-02   -1.505528e-02   -1.875155e-02   -1.946089e-02   -1.436906e-02 
  -1.596394e-02   -1.727920e-02   -1.250268e-02   -1.226600e-02   -1.404099e-02   -9.898154e-03   -7.956743e-03   -7.933182e-03   -5.974776e-03   -2.690609e-03 
  -2.665277e-03    3.903996e-03    9.408918e-03    1.138776e-02    7.975834e-03    1.530105e-02    9.577195e-03    1.625881e-02    1.189207e-02    1.927469e-02 
   1.350998e-02    2.011454e-02    1.916591e-02    1.474439e-02    1.954577e-02    1.493249e-02    1.867675e-02    1.441428e-02    1.640171e-02    1.753044e-02 
   1.272978e-02    1.285976e-02    1.453144e-02    1.027271e-02    8.669684e-03    8.645040e-03    6.474515e-03    3.475286e-03    3.460668e-03    2.582316e-03 
  -3.982360e-03   -1.635611e-03   -2.128763e-03   -9.194309e-03   -7.024320e-03   -6.110884e-03   -1.342760e-02   -1.343279e-02   -1.009110e-02   -1.814886e-02 
  -1.700186e-02   -1.322272e-02   -1.984665e-02   -1.933005e-02   -1.473532e-02   -1.997927e-02   -2.007755e-02   -1.506687e-02   -1.883367e-02   -1.881519e-02 
  -1.413768e-02   -1.473349e-02   -1.622308e-02   -1.164805e-02   -1.030030e-02   -1.223921e-02   -8.487046e-03   -5.499602e-03   -7.711209e-03   -4.983960e-03 
  -5.683677e-04   -5.297516e-04   -4.334704e-04    4.854748e-03    4.892821e-03    1.067315e-02    1.639213e-02    1.463895e-02    1.779253e-02    1.206800e-02 
   7.596372e-03    8.085743e-04   -6.527930e-03   -1.192121e-02    3.908967e-03    1.575864e-02   -6.657845e-03    1.066659e-02   -1.521793e-02   -1.385079e-02 
  -9.727565e-03    1.463901e-02    1.207379e-02    1.261476e-02   -1.193269e-02   -1.624689e-02    1.681477e-02   -1.731397e-02   -1.362875e-02   -2.234780e-02 
   1.307303e-02    2.165553e-02   -1.948308e-02   -9.693079e-03    8.035867e-03   -4.686134e-03   -1.451250e-02   -2.204407e-02   -6.757378e-03    6.660375e-03 
   1.593235e-02    1.240613e-02    8.393048e-03   -1.346508e-02    1.125510e-03   -4.249300e-03    1.993345e-02    4.106868e-03   -2.000719e-02   -4.993276e-03 
  -5.366927e-03    3.482189e-03    1.604760e-02    1.173275e-02   -6.314937e-03    1.937798e-02    1.947072e-02    1.069357e-02    5.042387e-03   -3.885127e-03 
   1.752193e-03   -1.842083e-02    1.163010e-02   -2.038095e-02    1.588473e-02   -6.336013e-03 
  -3.249133e-03   -3.528768e-03   -3.533351e-03   -3.258327e-03   -2.978736e-03   -2.974155e-03    0.000000e+00    0.000000e+00    0.000000e+00    0.000000e+00 
   0.000000e+00    0.000000e+00   -1.306341e-06   -9.555556e-07   -2.720305e-07    6.900729e-07    1.958184e-06    2.834056e-06    3.422448e-06    3.056932e-06 
   1.502459e-06   -1.483661e-06   -5.266170e-06   -1.057738e-05   -1.707459e-05   -2.415581e-05   -3.019330e-05   -3.867781e-05   -4.702762e-05   -5.563352e-05 
  -6.482963e-05   -7.461768e-05   -8.446971e-05   -9.447721e-05   -1.047120e-04   -1.154921e-04   -1.264378e-04   -1.372414e-04   -1.478495e-04   -1.586501e-04 
  -1.690113e-04   -1.793269e-04   -1.894610e-04   -2.007472e-04   -2.113793e-04   -2.222576e-04   -2.339429e-04   -2.465770e-04   -2.606579e-04   -2.755693e-04 
  -2.926009e-04   -3.090350e-04   -3.262601e-04   -3.436624e-04   -3.598846e-04   -3.778828e-04   -3.952406e-04   -4.126592e-04   -4.303297e-04   -4.481658e-04 
  -4.660827e-04   -4.840750e-04   -5.025789e-04   -5.209616e-04   -5.396705e-04   -5.585629e-04   -5.780275e-04   -5.978484e-04   -6.178588e-04   -6.376055e-04 
  -6.581403e-04   -6.797036e-04   -7.032522e-04   -7.275952e-04   -7.532191e-04   -7.799027e-04   -8.089411e-04   -8.367016e-04   -8.666923e-04   -8.955503e-04 
  -9.236377e-04   -9.511994e-04   -9.780786e-04   -1.004584e-03   -1.030806e-03   -1.057560e-03   -1.084084e-03   -1.110593e-03   -1.137558e-03   -1.164816e-03 
  -1.192624e-03   -1.221163e-03   -1.250377e-03   -1.280509e-03   -1.311406e-03   -1.343329e-03   -1.376025e-03   -1.409521e-03   -1.444027e-03   -1.478835e-03 
  -1.513755e-03   -1.548204e-03   -1.583488e-03   -1.617930e-03   -1.651570e-03   -1.686766e-03   -1.719988e-03   -1.751767e-03   -1.785219e-03   -1.818825e-03 
  -1.852539e-03   -1.887735e-03   -1.923490e-03   -1.960477e-03   -1.998633e-03   -2.037735e-03   -2.078147e-03   -2.119606e-03   -2.162169e-03   -2.205566e-03 
  -2.249483e-03   -2.294086e-03   -2.338888e-03   -2.383773e-03   -2.428523e-03   -2.472752e-03   -2.515827e-03   -2.558743e-03   -2.600872e-03   -2.641522e-03 
  -2.682106e-03   -2.723158e-03   -2.762881e-03   -2.803706e-03   -2.844591e-03   -2.886044e-03   -2.927193e-03   -2.969452e-03   -3.012959e-03   -3.057195e-03 
  -3.103411e-03   -3.150632e-03   -3.199106e-03   -2.881337e-03   -1.346935e-06    7.861975e-07   -3.339947e-03    9.339173e-09   -3.454286e-03   -3.265765e-03 
  -3.331788e-03    1.965190e-06    1.121962e-06   -2.192045e-06    4.788145e-06    1.391452e-06    7.679875e-06   -3.397668e-06    1.386447e-06   -9.044922e-06 
   1.404090e-06    1.322288e-05   -1.609612e-05    1.126493e-05   -2.481413e-05   -1.555698e-05   -3.636801e-05   -1.747952e-05    1.127670e-05   -1.987745e-05 
  -5.588422e-05   -2.325233e-05   -6.734673e-05    1.089832e-05   -2.918020e-05    6.635454e-06   -3.299965e-05   -9.052422e-05   -3.979038e-05   -1.049297e-04 
   9.719179e-07   -4.936167e-05   -1.191126e-04   -2.609663e-06   -5.916585e-05   -1.323344e-04   -1.142285e-05   -7.133267e-05   -1.465258e-04   -1.934111e-05 
  -1.459999e-04   -5.094120e-05   -1.744041e-04   -1.384099e-04   -5.915761e-05   -1.908370e-04   -1.380723e-04   -2.089234e-04   -1.430591e-04   -7.838711e-05 
  -1.493680e-04   -8.859821e-05   -2.225875e-04   -1.232463e-04   -2.646075e-04   -2.844393e-04   -1.396922e-04   -1.628735e-04   -1.465540e-04   -1.805018e-04 
  -2.744845e-03   -2.678672e-03   -3.166319e-03   -3.247275e-03   -2.757247e-03   -2.622772e-03   -2.778468e-04   -3.305254e-04   -1.703023e-04   -3.392099e-04 
  -2.069827e-04   -3.701892e-04   -3.301880e-04   -3.998630e-04   -3.303018e-04   -2.231564e-04   -3.302004e-04   -4.402520e-04   -3.402548e-04   -4.613171e-04 
  -2.370491e-04   -3.537573e-04   -2.578973e-04   -3.646458e-04   -5.030649e-04   -3.797056e-04   -5.250003e-04   -2.775081e-04   -3.995218e-04   -5.476385e-04 
  -2.927195e-04   -4.187389e-04   -5.687731e-04   -3.163477e-04   -4.422476e-04   -5.916255e-04   -3.352073e-04   -5.843190e-04   -3.973113e-04   -6.560097e-04 
  -6.870804e-04   -4.297071e-04   -4.717943e-04   -4.457279e-04   -5.046855e-04   -6.734728e-04   -7.522637e-04   -4.931927e-04   -7.589948e-04   -5.557705e-04 
  -7.976231e-04   -7.413718e-04   -5.677142e-04   -8.374425e-04   -7.365728e-04   -8.862652e-04   -7.471682e-04   -6.017509e-04   -9.062032e-04   -9.760630e-04 
  -6.599471e-05   -4.288571e-04   -1.406539e-04    4.468546e-06   -3.081837e-03   -7.218869e-04   -6.479794e-04   -8.332639e-04   -1.018277e-03   -6.767075e-04 
  -8.545925e-04   -7.151836e-04   -8.738482e-04   -1.083518e-03   -8.974473e-04   -1.116338e-03   -7.463704e-04   -9.283275e-04   -1.151411e-03   -7.837194e-04 
  -9.642950e-04   -1.202050e-03   -8.114497e-04   -1.003089e-03   -1.238004e-03   -8.399411e-04   -1.036609e-03   -1.268847e-03   -8.671649e-04   -1.067318e-03 
  -1.297882e-03   -9.084556e-04   -1.103595e-03   -1.329921e-03   -9.397424e-04   -1.135914e-03   -1.374129e-03   -9.690328e-04   -1.173365e-03   -1.407340e-03 
  -1.001713e-03   -1.206780e-03   -1.439211e-03   -1.047302e-03   -1.245737e-03   -1.474582e-03   -1.081882e-03   -1.280482e-03   -1.524677e-03   -1.114422e-03 
  -1.321196e-03   -1.563773e-03   -1.149754e-03   -1.357369e-03   -1.602203e-03   -1.197772e-03   -1.399606e-03   -1.663594e-03   -1.233814e-03   -1.445646e-03 
  -1.710556e-03   -1.269632e-03   -1.485595e-03   -1.752313e-03   -1.301679e-03   -1.523713e-03   -1.791276e-03   -1.349631e-03   -1.566785e-03   -1.836868e-03 
  -1.383730e-03   -1.827515e-03   -1.488782e-03   -1.928611e-03   -1.795532e-03   -1.983998e-03   -1.794911e-03   -1.532437e-03   -1.800145e-03   -2.055008e-03 
  -1.818415e-03   -2.091145e-03   -1.572681e-03   -1.846447e-03   -1.624224e-03   -1.870907e-03   -2.166790e-03   -1.902808e-03   -2.205105e-03   -1.672157e-03 
  -1.944315e-03   -2.247158e-03   -1.712100e-03   -1.984680e-03   -2.288142e-03   -1.771609e-03   -2.034585e-03   -2.334221e-03   -1.817456e-03   -2.079981e-03 
  -2.399303e-03   -1.861260e-03   -2.133588e-03   -2.448812e-03   -1.909795e-03   -2.181591e-03   -2.496385e-03   -1.976761e-03   -2.237418e-03   -2.570873e-03 
  -2.026508e-03   -2.297323e-03   -2.626444e-03   -2.077390e-03   -2.348825e-03   -2.676261e-03   -2.123305e-03   -2.396230e-03   -2.723666e-03   -2.188084e-03 
  -2.451434e-03   -2.802074e-03   -2.234383e-03   -2.510531e-03   -2.860054e-03   -2.278760e-03   -2.560870e-03   -2.910890e-03   -2.317659e-03   -2.608205e-03 
  -2.959076e-03   -2.375125e-03   -2.661361e-03   -3.009320e-03   -2.417762e-03   -2.937014e-03   -3.154224e-03   -2.770137e-03   -2.546703e-03   -2.478751e-03 
  -2.597659e-03   -1.546202e-03   -2.214585e-04   -1.049262e-04   -1.429964e-03   -3.309302e-05    1.511982e-06   -3.632527e-04    1.499607e-05   -6.147555e-04 
  -2.449613e-04   -2.829460e-03   -3.439283e-03   -3.076883e-03   -8.721217e-07   -1.894003e-05   -1.628415e-04   -2.453689e-04   -2.341105e-04   -2.718870e-04 
  -3.042841e-03   -2.719748e-03   -3.067588e-04   -3.510332e-04   -6.264174e-04   -6.675849e-04   -7.207878e-04   -7.738788e-04   -9.441674e-04   -1.891538e-03 