TITLE = "FEM Volume Output"
VARIABLES = "X", "Y", "Z", "U", "V", "W", "TotalDisp", "Temp", "VonMises"
ZONE T="Time=0.0000", STRANDID=1, SOLUTIONTIME=0.000000e+00, NODES=845, ELEMENTS=2979, ZONETYPE=FETETRAHEDRON, DATAPACKING=BLOCK, VARLOCATION=([9]=CELLCENTERED)
   4.330127e-03    5.000000e-03    4.646617e-03    3.021856e-03   -2.290786e-03   -2.500000e-03   -4.330127e-03   -3.455259e-03   -1.856402e-03    4.330127e-03 
   3.098145e-03    4.686289e-03   -2.137788e-03   -2.500000e-03   -3.625416e-03   -4.330127e-03   -1.753181e-03   -3.783384e-03   -2.971502e-03   -2.559501e-03 
  -5.000000e-03   -4.690034e-03   -4.650541e-03   -5.010601e-03   -1.050513e-03    3.061617e-19    1.839288e-03    1.752470e-03    3.622458e-03    2.500000e-03 
   1.867365e-03    5.223248e-04   -2.092883e-03   -1.724922e-03   -1.576475e-03   -6.481005e-04   -8.912525e-04   -9.184851e-19   -6.791755e-04    1.239339e-03 
  -9.385699e-07    7.248311e-04    2.550183e-03    5.003437e-03    2.511415e-03    2.361548e-03    6.734424e-04   -1.020496e-06    2.500000e-03    1.854960e-03 
   3.452401e-03    4.447338e-03    2.084252e-03   -1.927921e-03   -2.294544e-03   -4.557598e-03   -3.591795e-03    4.545411e-03   -4.458515e-03    4.998577e-03 
   3.427707e-03    4.654870e-03   -5.017067e-03   -3.678566e-03   -2.358067e-03   -6.264146e-06   -1.528007e-04   -7.269564e-04   -6.518890e-06    1.831622e-03 
  -1.534455e-05   -1.823460e-03   -3.510083e-03    3.814456e-04    3.538627e-04    2.223902e-03    3.489913e-03    2.333624e-03    1.725375e-03    2.286235e-03 
   3.571489e-03    4.642901e-03    4.989771e-03    1.799916e-03   -1.854924e-03   -4.682525e-03   -4.670007e-03   -5.026073e-03   -1.534567e-05   -2.902167e-03 
  -1.966229e-05    2.841143e-03    4.610595e-03    3.586717e-03   -1.918779e-03   -3.494115e-03    2.993654e-05    1.868299e-03   -2.748219e-05   -1.856775e-03 
  -3.623233e-03    1.634972e-03   -1.739867e-03    1.687969e-03    3.458079e-03   -7.322628e-06    4.613051e-03    4.978185e-03    1.873154e-03   -1.913078e-03 
  -4.659571e-03   -4.661469e-03   -5.037551e-03   -2.743576e-05    1.855298e-03    3.469255e-03    9.073581e-04   -4.245515e-05   -1.843758e-03   -3.612652e-03 
  -9.334734e-04   -2.365263e-03   -3.530914e-03    8.739374e-04    3.550545e-03    4.632255e-03    2.305099e-03   -2.306401e-05    4.598646e-03    2.279708e-03 
   4.963120e-03    1.771037e-03    3.426452e-03   -9.841440e-04   -1.927729e-03   -4.708335e-03   -3.654321e-03   -2.357170e-03   -4.675093e-03   -3.519186e-03 
  -5.052488e-03    3.561733e-03   -4.234526e-05    4.545114e-03    1.929296e-03   -1.853572e-03   -5.154289e-05   -6.016880e-05    2.451681e-03    4.945966e-03 
   4.618581e-03   -3.994648e-05    3.420749e-03   -2.034480e-03   -5.140026e-05    1.747627e-03   -2.556012e-03   -3.660572e-03   -4.727207e-03   -4.652708e-03 
  -3.548883e-03   -5.069680e-03    3.532385e-03   -6.010770e-05    2.433320e-03    4.536525e-03    3.435321e-03    4.600859e-03    4.926226e-03   -1.869902e-03 
  -7.021879e-05   -7.997748e-05    1.885508e-03   -6.083978e-05   -7.029801e-05   -2.029145e-03    1.725969e-03   -3.646784e-03   -4.747088e-03   -2.574596e-03 
  -4.682483e-03   -3.603327e-03   -5.089477e-03    3.478553e-03   -7.995395e-05    4.533079e-03    2.246665e-03    4.579586e-03    4.904273e-03    1.823048e-03 
  -9.888993e-04   -1.018301e-04   -1.890498e-03    8.085689e-04    1.704552e-03    3.397588e-03   -8.678907e-05   -2.008359e-03   -2.427414e-03   -1.062490e-03 
  -3.684296e-03   -4.768354e-03   -4.720753e-03   -3.610050e-03   -5.111259e-03    3.471611e-03   -1.017824e-04    2.208664e-03    4.525306e-03    4.557010e-03 
   4.880606e-03    1.762239e-03    8.495064e-04   -1.258400e-04   -2.343735e-03   -1.913298e-03   -3.679296e-03    7.820443e-04    3.417902e-03    1.681018e-03 
  -1.638089e-04   -1.993889e-03   -2.816288e-03   -3.664175e-03   -4.791770e-03   -4.759283e-03   -5.135157e-03    3.402874e-03    4.540272e-04    2.363859e-03 
   4.460649e-03   -1.258003e-04    1.805765e-03    3.309824e-03    1.832143e-03    1.661888e-03   -2.088326e-03   -1.515640e-04   -2.237174e-03   -2.114058e-03 
  -4.756031e-03   -3.770913e-03    4.459420e-03    1.811992e-03    4.471561e-03    4.854889e-03   -1.580107e-03   -4.744769e-03   -3.623362e-03   -3.495376e-04 
  -2.654440e-03   -5.160708e-03    2.823337e-03    3.457147e-03    4.827662e-03    4.507270e-03   -1.599444e-04    1.570831e-03   -1.515520e-04    1.623646e-03 
   3.328736e-03    1.745352e-03   -1.959899e-03   -1.789856e-04   -1.969407e-03   -2.080855e-03   -3.033488e-03   -4.796824e-03   -3.698547e-03   -4.845387e-03 
  -3.753289e-03   -5.187976e-03   -4.804236e-03    2.215992e-03    4.410278e-03    4.799096e-03    4.479353e-03   -2.788759e-04    2.045694e-03    3.383361e-03 
  -1.077947e-03    7.135724e-04   -1.789704e-04    1.595223e-03   -2.520571e-03    4.388735e-03    3.232684e-03    9.175682e-04    1.766189e-03   -1.987828e-03 
  -2.078395e-04   -2.158657e-03   -1.233999e-03   -3.847118e-03   -2.077355e-04   -2.511763e-03   -3.661038e-03   -4.873472e-03   -5.216621e-03    3.418603e-03 
   1.718045e-03   -4.841553e-03   -2.169731e-03    1.563117e-03   -2.377610e-04    3.538467e-04    4.450820e-03    4.769265e-03    2.309557e-03   -2.014863e-03 
  -1.768516e-03   -3.761722e-03   -2.378208e-04   -2.021477e-04   -4.904009e-03   -3.022982e-03   -3.808930e-03   -5.246401e-03    2.025865e-03    3.273033e-03 
   4.361822e-03   -6.535177e-05   -2.440977e-03    2.253212e-03    3.320232e-03    1.678883e-03    4.421193e-03    3.176045e-03    1.530121e-03   -2.043199e-03 
  -4.935289e-03   -2.149926e-03   -4.875699e-03   -3.726887e-03   -5.277183e-03   -2.191678e-03   -1.872872e-03   -2.687122e-04   -3.903896e-03    1.674504e-03 
   4.307848e-03    4.738472e-03    8.818522e-04   -2.687584e-04   -1.391877e-04   -2.276888e-03    3.353059e-03    4.390131e-03    1.701595e-03   -2.074220e-03 
  -4.966667e-03    1.498324e-03    2.215935e-03    3.144337e-03    4.707007e-03    4.288707e-03   -2.878161e-04   -3.003919e-04   -3.935593e-03   -1.239484e-04 
  -3.004591e-04   -3.211471e-03   -4.883862e-03   -3.758518e-03   -5.308656e-03   -2.633256e-03    7.271253e-05   -2.278850e-03    2.881008e-03    3.321396e-03 
   4.358334e-03    4.674964e-03    1.639246e-03   -3.182168e-04   -2.623432e-03   -4.928735e-03   -2.106135e-03   -3.326235e-04   -3.793080e-03    4.254931e-03 
  -2.857738e-03   -4.998629e-03   -3.965562e-03   -5.340648e-03    1.466306e-03    1.403757e-03   -3.325523e-04    3.114480e-03   -4.798167e-04    1.433910e-03 
  -3.488408e-04   -3.650667e-04   -2.314739e-03   -5.030854e-03    1.944915e-03    3.286974e-03    2.163104e-03    4.326034e-03    4.642659e-03    1.610231e-03 
   3.256688e-03   -3.488807e-04   -4.000100e-03   -2.697987e-03   -2.844727e-03   -4.959627e-03   -5.373013e-03   -2.138512e-03   -3.651496e-04    3.079835e-03 
  -3.823235e-03    4.197721e-03    4.610217e-03   -3.651077e-04    1.401200e-03    1.356905e-03   -2.404382e-03   -3.976564e-04   -2.183701e-03   -5.063329e-03 
  -5.405457e-03   -4.002244e-03    1.414175e-03    4.293657e-03    1.634715e-03    3.193481e-03   -2.126436e-03   -4.967395e-03   -3.977272e-04   -2.170925e-03 
   3.078944e-03   -3.887744e-03    1.368761e-03    4.261152e-03    4.185138e-03    4.577872e-03    2.086620e-03   -1.271896e-03   -2.391409e-03   -4.301702e-04 
  -4.173478e-04   -5.019380e-03   -2.851863e-03   -5.437783e-03   -5.095741e-03   -4.095903e-03    1.556930e-03   -1.039676e-04    3.222097e-03   -4.302380e-04 
  -3.049909e-04   -2.203590e-03   -2.235826e-03    2.982128e-03    2.056050e-03   -3.855969e-03   -3.368123e-03   -5.027559e-03   -5.469875e-03   -5.128020e-03 
  -4.600949e-04   -2.479025e-03    1.336349e-03    4.128820e-03   -4.624096e-04    1.579850e-03   -4.624710e-04    4.228976e-03    4.545810e-03   -2.267884e-03 
   7.816672e-04    3.138311e-03   -4.048927e-04   -2.418582e-03   -4.076018e-03   -2.112234e-03   -3.942605e-03   -2.253692e-03    7.817457e-04    3.004893e-03 
   2.025817e-03   -3.639716e-03   -5.093237e-03   -5.159744e-03   -5.501382e-03   -2.707322e-03   -2.432718e-03   -4.108807e-03    1.304520e-03    4.130926e-03 
  -4.941402e-04   -3.972756e-03    1.469655e-03   -4.941907e-04    4.197187e-03    4.514325e-03   -2.299185e-03   -3.097085e-03   -5.111608e-03    1.307123e-03 
  -8.332156e-04    3.108092e-03    2.697112e-03    2.971950e-03   -4.939975e-04    3.896891e-04   -3.127320e-03   -5.190832e-03   -5.532212e-03   -2.493811e-03 
  -4.136507e-03   -4.039624e-03   -5.221057e-03    1.273291e-03    4.087038e-03    4.589886e-04   -5.250961e-04    2.944482e-03   -4.006622e-03   -1.423890e-03 
   1.468292e-03   -5.252020e-04    4.165999e-03    2.480242e-03    4.483507e-03    3.074392e-03   -2.329567e-03   -2.476440e-03   -5.561968e-03   -5.162211e-03 
  -2.341956e-03    4.771590e-04   -4.175434e-03   -2.888029e-03   -5.250199e-03   -5.551707e-04    1.433193e-03   -1.427343e-03    1.242895e-03    1.216236e-03 
   4.077099e-03   -5.550613e-04    2.905052e-03   -4.026669e-03   -1.540735e-03    1.390053e-03    1.790411e-03    4.135809e-03    4.453588e-03    3.053927e-03 
  -5.590532e-03   -4.310138e-03   -5.154903e-03   -2.359027e-03    1.213679e-03   -5.278131e-03   -2.590753e-03   -4.191273e-03   -2.016660e-03   -2.521593e-03 
  -5.839638e-04   -2.471163e-03   -4.068206e-03   -5.548370e-04   -3.543446e-03    1.581137e-04   -5.839865e-04    1.445633e-03    4.011407e-03    1.555728e-03 
   2.889760e-03    7.603964e-04    4.106502e-03    4.425013e-03    3.012947e-03    4.025100e-03    1.320719e-03   -5.224241e-03   -5.617984e-03   -6.114680e-04 
  -3.363175e-03   -1.355845e-03   -2.386832e-03   -4.066083e-03    1.185561e-03   -2.069952e-04   -6.114115e-04   -4.801610e-04   -2.423448e-03   -5.304546e-03 
  -4.246393e-03   -2.599357e-03   -1.007722e-03    1.159051e-03   -6.373400e-04   -6.003795e-04    2.074711e-03    2.833372e-03    1.054942e-03    1.912169e-03 
   4.078719e-03    4.397685e-03    3.013884e-03    3.976980e-03    1.344959e-03   -3.696197e-03   -5.229487e-03   -5.643631e-03   -3.714862e-04   -2.413246e-03 
  -6.372929e-04    2.883457e-03   -2.087815e-03   -4.166962e-03    2.513431e-04   -2.449365e-03   -5.329220e-03   -4.198563e-03   -2.459421e-04   -2.535960e-03 
   1.134330e-03   -6.613304e-04    4.372037e-03    1.054320e-03    4.052543e-03    2.915153e-03    2.191928e-03    3.989328e-03    4.027640e-03    2.905249e-04 
   1.232156e-03    2.936902e-03   -2.971121e-03   -5.667581e-03   -5.290383e-03   -5.262535e-03   -2.438194e-03   -6.614171e-04   -4.144085e-03    4.347982e-03 
   2.813523e-03    3.915777e-03    1.329871e-03   -6.834667e-04   -2.460908e-03    3.251820e-04    2.955081e-03    4.004801e-03    1.617821e-03   -5.689408e-03 
  -5.297210e-03   -2.971311e-03   -4.124209e-03   -5.352061e-03   -2.679043e-03   -4.267540e-03   -1.679274e-03   -6.833244e-04    1.111546e-03   -4.328482e-03 
  -6.515506e-04   -2.792230e-03   -8.544910e-05    1.676242e-03   -1.556202e-03    4.326250e-03   -2.667314e-03    2.750604e-03    3.909274e-03    1.276571e-03 
  -7.032604e-04   -2.482474e-03    1.124863e-03    3.984333e-03    2.858266e-03    1.091540e-03    1.022544e-03   -7.031518e-04   -2.516918e-03   -5.371941e-03 
  -4.267336e-03   -2.414869e-03   -4.223817e-03   -5.302060e-03   -5.708942e-03   -6.798691e-04    4.306725e-03   -3.044582e-03   -5.383804e-03   -5.726346e-03 
  -2.715008e-03   -4.217119e-03   -4.360246e-03    2.814606e-03   -1.610464e-03   -2.516437e-03   -2.085311e-03   -4.161293e-03    1.627440e-03    1.089446e-03 
   1.924787e-04   -7.206559e-04    3.878478e-03    6.465385e-04    3.960244e-03    2.780239e-03    1.288920e-03   -7.207680e-04    2.918226e-03   -5.388849e-03 
  -2.559266e-03   -5.349589e-03   -3.017801e-03   -4.224170e-03   -5.741076e-03   -7.050585e-04    4.289333e-03   -1.724096e-03   -2.656046e-03   -4.328300e-03 
   2.718948e-03    1.101502e-03   -7.352827e-04    2.778666e-04    1.572484e-03    3.894817e-03    3.933835e-03    1.198269e-03   -7.354020e-04    2.857225e-03 
  -5.397102e-03   -2.531097e-03   -2.729333e-03   -4.328683e-03   -2.490410e-03   -2.583526e-03   -5.336891e-03   -4.247276e-03   -5.752635e-03   -3.324656e-03 
  -7.323607e-04    4.274721e-03   -3.850338e-03   -5.761556e-03   -5.352628e-03   -5.378731e-03   -3.582274e-03   -4.194325e-03   -2.593988e-03    1.009640e-03 
   2.753104e-03    1.099400e-03    3.856344e-03   -3.021732e-03   -3.267774e-03   -5.098973e-03   -4.350556e-03   -2.529569e-03   -5.469483e-03   -1.854012e-03 
  -7.492586e-04   -7.472935e-04   -3.824757e-03   -5.407127e-03   -2.727031e-03   -2.432494e-03   -4.396774e-03   -5.421677e-03   -2.969112e-03   -2.583151e-03 
  -7.621341e-04   -4.208622e-03   -5.767503e-03   -5.447370e-03   -5.773378e-03   -3.537343e-03   -3.867329e-03   -5.099102e-03   -3.179969e-03   -4.254594e-03 
   1.050542e-03    1.245470e-03    3.917148e-03   -8.614919e-04   -7.475015e-04   -7.564934e-04    1.222489e-03    2.834712e-03   -7.519918e-04    1.292459e-03 
   4.263117e-03   -1.394511e-03    3.906379e-03    1.169888e-03    2.884997e-03   -4.707864e-04    9.438165e-04   -7.644747e-04   -7.564919e-04    2.752708e-03 
   6.934048e-04    1.089302e-03    3.851553e-03   -4.680223e-04   -1.788493e-04   -1.779270e-03   -1.379080e-03   -2.688839e-03    5.234085e-04   -2.137963e-03 
  -1.877340e-03   -1.908465e-03   -2.469721e-03   -3.267504e-03   -7.622564e-04    1.576438e-03    2.129697e-03    4.254019e-03    2.153514e-03    3.906420e-03 
   1.898927e-03    2.731202e-03    1.740284e-03    1.646545e-03    1.064217e-03    2.682319e-03    3.863743e-03    1.384812e-03    5.462676e-04   -1.151715e-04 
   1.221817e-03   -1.671120e-04   -7.645152e-04    1.003419e-03    4.248016e-03    3.925167e-03    2.472864e-03    3.574753e-03    2.827227e-03    3.947302e-03 
   1.619254e-03    2.465981e-03    1.740067e-03    4.246739e-03    3.575071e-03 
   2.500000e-03    0.000000e+00    1.854805e-03    4.403083e-04    2.405039e-03    4.330127e-03    2.500000e-03    3.624995e-03    4.649197e-03   -2.500000e-03 
  -1.003071e-03   -1.752112e-03   -2.468608e-03   -4.330127e-03   -3.455164e-03   -2.500000e-03   -4.689159e-03   -3.673142e-04    1.033160e-03   -7.336803e-04 
   6.123234e-19    1.753448e-03   -1.856501e-03   -8.230213e-08    3.098126e-03    5.000000e-03    3.145725e-03    4.688264e-03    3.452663e-03    4.330127e-03 
   1.749178e-03    3.000942e-03   -4.552065e-03   -2.413568e-03    4.931568e-04    9.853122e-04   -3.115902e-03   -5.000000e-03   -1.505675e-03   -5.231767e-04 
   5.007190e-03    3.337691e-03    1.470139e-03   -8.330487e-08   -1.591265e-03   -2.222216e-03   -2.857039e-03   -5.006470e-03   -4.330127e-03   -4.648092e-03 
  -3.622739e-03    2.289533e-03    4.550413e-03    2.523239e-03    4.454575e-03    2.089847e-03    3.501696e-03   -2.087540e-03   -2.291488e-03    2.652148e-07 
  -1.416050e-05   -1.810506e-03    1.851457e-07   -2.294848e-05   -1.724862e-05    5.007943e-03    2.794572e-03   -2.940611e-03   -5.007317e-03   -4.655147e-03 
  -5.007494e-03   -4.669264e-03   -3.582927e-03    1.411131e-03   -1.485499e-03    2.037306e-03    3.580693e-03   -5.706417e-05   -2.908231e-03   -4.451701e-03 
  -3.498358e-03    1.842648e-03    3.140197e-07    4.668128e-03    4.657599e-03    1.812856e-03   -1.843871e-03    3.843263e-07    5.008355e-03   -1.182921e-04 
   2.504500e-03    7.350537e-05   -1.894731e-03   -3.474668e-03   -4.635483e-03   -3.605662e-03   -2.813638e-03   -4.636031e-03   -5.007313e-03    1.560449e-03 
   3.477596e-03   -1.596836e-03   -1.537054e-03    1.506123e-03    3.604242e-03    2.104783e-07    1.890359e-03    3.846782e-07    4.634678e-03    4.638525e-03 
   1.897235e-03   -1.891059e-03    4.135277e-07    5.008420e-03   -4.635252e-03   -3.579825e-03   -2.317571e-03   -5.007143e-03   -4.670368e-03   -3.500808e-03 
  -2.334813e-03    9.044268e-04    3.583353e-03    2.335539e-03    3.499425e-03   -1.806111e-03   -9.029428e-04    4.792704e-07    1.891237e-03    9.461545e-04 
   6.565063e-07    4.670264e-03    3.607714e-03    2.319252e-03    4.638459e-03    1.808618e-03    3.474505e-03   -9.454302e-04   -1.891867e-03   -3.608448e-03 
   6.375666e-07   -3.471020e-03    5.008444e-03    1.982026e-03   -4.597555e-03   -4.672781e-03   -2.503088e-03   -5.007069e-03    7.362342e-07    7.601805e-07 
  -1.799102e-03    6.235371e-07    3.596342e-03    4.600242e-03    2.504594e-03    4.673007e-03    6.157519e-07    3.486520e-03    1.801945e-03   -1.981910e-03 
  -3.596627e-03    8.120205e-07   -3.483097e-03    5.008603e-03    7.562452e-07    1.957272e-03    3.562610e-03   -1.796444e-03    8.693139e-07   -4.673833e-03 
  -2.503193e-03   -5.007028e-03   -4.607865e-03    7.493071e-07    2.504777e-03    4.611206e-03    4.674124e-03    3.521195e-03    1.799538e-03    9.109037e-07 
  -1.957280e-03   -3.562692e-03    9.635247e-07   -3.517552e-03    5.008702e-03    1.916127e-03   -8.976380e-04   -1.795890e-03    1.034851e-06   -4.625537e-03 
  -2.336335e-03   -5.006913e-03   -4.673962e-03    2.337821e-03    4.674419e-03    3.578081e-03    8.894622e-07    4.628371e-03    8.998521e-04    2.314523e-03 
   3.505509e-03    1.799033e-03   -1.915208e-03   -3.577774e-03    1.141307e-06   -3.502061e-03    5.008790e-03    9.587117e-04    1.878604e-03   -1.795756e-03 
   9.498233e-07   -4.640798e-03   -2.457200e-03   -5.006805e-03   -1.524335e-03   -4.673687e-03   -3.533121e-03    2.337989e-03    3.533822e-03    4.674592e-03 
   1.280187e-04    4.643807e-03    1.247724e-03    3.550500e-03    1.798828e-03   -1.877538e-03    1.041718e-06   -3.546904e-03   -3.463125e-03    2.076102e-03 
   1.973700e-03    5.008898e-03    4.614462e-03    3.614464e-03   -4.601095e-03   -2.983859e-03   -4.613253e-03   -5.006651e-03    2.351705e-03    4.604373e-03 
   1.948588e-03    3.468474e-03    1.913804e-03   -3.092553e-04   -1.945468e-03    1.084487e-06   -1.530179e-03   -1.972522e-03   -3.613456e-03    1.933725e-03 
   1.767089e-04    1.158265e-06   -3.747642e-04   -3.464883e-03    1.190662e-06   -1.790187e-03   -2.502722e-03    1.808006e-03    5.008944e-03    4.677079e-03 
   3.568972e-03   -4.626421e-03   -4.675548e-03   -5.006571e-03    1.734679e-03    4.629596e-03   -1.199403e-03   -1.912440e-03   -3.567629e-03    1.793376e-03 
   3.515397e-03    1.173058e-06   -1.961570e-03    1.051459e-03    1.963260e-03    1.267773e-06   -1.789939e-03    1.120484e-04   -1.656319e-03   -3.511800e-03 
  -2.337038e-03    2.339367e-03    5.009098e-03    4.677339e-03    8.970288e-04    1.944938e-03    3.633734e-03   -2.533827e-03   -4.605551e-03   -4.675431e-03 
  -5.006539e-03    4.608992e-03    2.332228e-03    3.448640e-03    5.009120e-03   -1.032108e-03   -3.632014e-03    1.793099e-03    1.379962e-06   -3.445049e-03 
  -4.613487e-03   -1.942794e-03    4.616807e-03    4.678456e-03    5.009207e-03    2.413032e-03   -1.787309e-03    1.374678e-06   -7.081009e-04   -4.676322e-03 
  -2.814994e-03   -3.563577e-03   -5.006393e-03    1.287136e-06    1.790684e-03    1.586094e-03    3.519168e-03    1.438301e-06    2.530239e-03    3.565619e-03 
   1.936524e-03   -2.285689e-03   -6.357174e-06   -2.248366e-03   -3.515511e-03   -4.617055e-03   -1.785008e-03    3.629738e-03    4.679549e-03   -4.677017e-03 
   1.788331e-03   -1.648332e-03   -1.934069e-03   -3.627228e-03    1.521761e-06    4.620489e-03    2.163308e-03    5.009338e-03    3.453259e-03    1.673940e-03 
   1.990603e-03    1.484502e-06   -2.319835e-03   -5.006348e-03   -5.709796e-05    4.597555e-03   -3.449652e-03   -1.784482e-03   -4.594089e-03   -4.677036e-03 
   1.788037e-03    4.679785e-03    1.552779e-06    3.629899e-03    1.581285e-06    1.960590e-03    2.505467e-03    5.009418e-03    3.453266e-03   -2.483236e-03 
  -5.006239e-03   -1.615764e-03   -1.987862e-03   -3.627068e-03    1.659992e-06    2.771689e-04    8.643596e-04    4.610457e-03    1.510729e-05   -3.449638e-03 
  -1.784462e-03    1.623918e-06   -4.606972e-03   -2.502270e-03   -2.229923e-03   -1.957533e-03   -4.676922e-03   -5.006166e-03   -3.624705e-03    1.964116e-03 
   1.096959e-03    1.787992e-03    3.455548e-03    1.702287e-06    4.679962e-03    1.814741e-03    5.009499e-03    3.627833e-03   -5.026687e-04    4.680094e-03 
   2.505605e-03    5.009538e-03    4.609030e-03    1.787952e-03    9.829340e-04   -3.451966e-03   -1.250278e-03   -1.784454e-03    1.674578e-06   -4.605526e-03 
  -3.449769e-03   -2.502220e-03    3.453301e-03    8.948218e-04   -1.250294e-03   -1.960853e-03    1.767319e-06   -4.676802e-03   -5.006120e-03    3.630093e-03 
  -3.626727e-03    2.021312e-03    1.737667e-06    1.717158e-06    4.680244e-03    1.800678e-03    4.584296e-03    5.009594e-03    1.743421e-03    1.787817e-03 
   1.799254e-06    3.485050e-03   -1.739937e-03   -1.784327e-03   -4.580815e-03   -3.481637e-03   -1.797181e-03   -2.017790e-03   -5.006068e-03   -4.676748e-03 
   3.599703e-03   -3.596026e-03    4.680309e-03   -1.784444e-03    1.976043e-03    1.771848e-06    1.768838e-06    3.542667e-04    4.603984e-03    5.009650e-03 
   2.505709e-03   -1.972343e-03   -1.489050e-04    1.833199e-06    1.787887e-03    3.420736e-03   -4.600558e-03   -2.493980e-03   -3.417371e-03   -5.006021e-03 
  -3.189063e-03   -4.676588e-03   -4.676547e-03    3.660957e-03    1.819010e-06   -3.657073e-03   -1.242289e-03   -2.027481e-03    1.887787e-06    1.787832e-03 
   3.209520e-03    4.579883e-03    4.680416e-03    2.031402e-03    5.009652e-03   -4.576480e-03   -5.005963e-03   -1.784362e-03    1.822098e-06   -4.676386e-03 
  -2.502108e-03   -3.472070e-03   -1.212175e-04    1.472577e-03    3.475368e-03   -2.297112e-03   -3.605082e-03   -2.767858e-03    2.505812e-03    3.609297e-03 
   1.854914e-06   -5.044145e-04   -1.949074e-03    1.787908e-03    1.958753e-06    2.307805e-03    4.613806e-03    3.473929e-03    4.680490e-03    1.953258e-03 
   5.009748e-03   -3.606201e-03   -4.610385e-03   -5.005945e-03   -1.784488e-03    1.854644e-06   -4.676276e-03   -1.958533e-03   -1.978886e-03   -1.734385e-03 
  -2.899514e-03   -3.470822e-03    1.243447e-04    3.610653e-03    1.904520e-06    2.341192e-03    1.010345e-03    1.787878e-03    1.977535e-06    4.600983e-03 
   3.477052e-03    1.341424e-03    1.787904e-03    4.680599e-03    1.983259e-03    3.124191e-03    5.009718e-03    3.607792e-03   -3.603112e-03   -3.438661e-03 
  -4.597656e-03   -5.005908e-03   -1.784575e-03   -9.627009e-04    1.899679e-06   -3.474005e-03   -4.676155e-03    4.621283e-03    2.085866e-06   -1.930978e-03 
  -8.674835e-04   -1.927124e-03    3.467384e-03    8.950223e-04    1.788055e-03   -5.005866e-03    1.154023e-03    2.197833e-03    4.680710e-03    3.442079e-03 
   1.935472e-03    5.009838e-03    3.617144e-03   -3.612180e-03   -2.587743e-03   -4.617987e-03   -8.912335e-04   -1.784575e-03    1.944264e-06   -3.464422e-03 
   2.038537e-06   -2.237904e-04   -2.015761e-03   -4.676054e-03    4.680694e-03    1.787750e-03    4.584726e-03    3.480406e-03    2.325521e-03    4.626305e-03 
   5.009901e-03   -1.547772e-03   -3.599492e-03    1.989567e-06    7.768515e-04   -3.706676e-03   -5.005763e-03   -4.581549e-03    2.020593e-03    1.606543e-03 
   3.604722e-03   -1.846321e-03   -1.784706e-03    1.977165e-06   -3.477515e-03    1.923596e-03   -4.623063e-03   -1.918617e-03    2.083213e-06   -5.005822e-03 
  -1.406342e-03   -3.018858e-03   -4.676005e-03   -3.627369e-03    4.680987e-03    2.641562e-03    5.009926e-03    3.753582e-03    1.726753e-03    1.787777e-03 
   3.451091e-03    4.604653e-03    3.358223e-03    4.680974e-03    5.009874e-03    2.018932e-06    2.030079e-03    3.632914e-03   -2.770805e-03    2.039389e-06 
  -1.784480e-03    1.992128e-06   -3.448354e-03    1.974824e-03   -4.601592e-03    5.784862e-05   -1.969620e-03    2.134584e-06   -3.137009e-03   -4.675826e-03 
  -5.005771e-03    3.559628e-03   -1.672570e-03   -3.553971e-03    1.861250e-03    1.726818e-03    1.787880e-03    3.526621e-03    3.090777e-03    4.641537e-03 
   4.681043e-03    5.009921e-03    2.123222e-06   -1.375339e-03   -1.784652e-03   -3.523909e-03    1.388973e-03    1.886797e-03   -1.784653e-03   -2.317957e-03 
  -4.638478e-03   -3.477561e-03   -9.397583e-04    2.283682e-06   -1.881205e-03   -2.001707e-03   -4.675805e-03   -5.005699e-03   -3.599369e-03    2.169244e-06 
   3.605175e-03    2.007358e-03   -4.587622e-03   -5.005630e-03   -4.675724e-03   -2.292523e-03   -3.436109e-03   -1.784652e-03    1.004498e-03    2.212624e-06 
  -1.969191e-03   -1.000006e-03   -3.638762e-03    1.787768e-03    4.590557e-03    3.480059e-03    2.296580e-03    5.010009e-03    4.681166e-03    3.438658e-03 
   2.096775e-06    1.642969e-03    2.596293e-03   -8.910825e-04   -2.337016e-03    2.136113e-06    4.604791e-03    3.644812e-03    1.974725e-03   -4.601661e-03 
  -5.005577e-03   -4.675345e-03   -1.716767e-03   -1.785372e-03   -3.518004e-03    4.680931e-03    1.823389e-03    5.010071e-03    1.720625e-03    1.788601e-03 
   3.520390e-03   -1.818403e-03   -3.559570e-03   -1.999000e-03    2.223841e-06    2.186936e-06    2.141643e-06    9.035065e-04    1.804341e-03    2.180768e-06 
   4.591693e-03    1.367702e-03    3.441234e-03    3.566037e-03   -2.333569e-03   -4.669057e-03   -3.496028e-03   -3.635846e-03   -8.994196e-04    4.674980e-03 
   2.338446e-03    5.010152e-03    2.004941e-03    3.501320e-03   -1.801520e-03   -1.364114e-03   -4.588807e-03   -5.005493e-03   -3.438953e-03    1.831791e-03 
  -4.658295e-03   -1.924114e-03   -9.986515e-04   -3.589461e-03    2.378714e-06    2.236649e-06    2.089968e-06    2.297198e-03    4.623637e-03    3.489700e-03 
   3.642620e-03    4.664398e-03    5.009943e-03   -2.293038e-03    1.003316e-03    1.930238e-03   -1.828895e-03   -4.620658e-03   -5.005712e-03   -3.487467e-03 
   1.842933e-03    1.751924e-03    4.597943e-03    3.501089e-03   -1.788345e-03   -4.653968e-03   -1.984336e-03   -3.578262e-03    2.348259e-06   -4.167134e-05 
   2.218392e-06    2.334746e-06   -9.727846e-04    2.216603e-06   -1.971567e-03   -1.926058e-03   -2.199460e-03   -3.637290e-03   -4.653815e-03    1.793369e-03 
   3.596090e-03    4.660005e-03    1.990472e-03   -2.349883e-03   -4.333271e-03   -2.500120e-03   -3.489038e-03   -4.682781e-03   -1.703421e-03   -3.067378e-03 
   2.506098e-03    5.010001e-03    1.720959e-03    1.842924e-03    4.603264e-03    1.064562e-03    3.439340e-03    1.824925e-03   -1.507249e-03   -4.660771e-03 
  -5.005520e-03    1.304626e-04    2.173973e-06    1.767677e-03    2.191461e-06   -6.426152e-04    9.709779e-04    2.504640e-03    2.211913e-03    3.589307e-03 
  -1.748070e-03   -4.595228e-03   -1.839963e-03   -2.652354e-03   -5.005622e-03   -5.005666e-03   -4.600686e-03   -3.498912e-03    2.180910e-06    4.418692e-04 
   2.172997e-06   -2.916256e-03   -1.840253e-03   -4.620030e-03   -3.437514e-03   -3.814814e-03   -4.706546e-03   -5.005488e-03    5.010000e-03    3.585154e-03 
   3.168842e-03    4.660081e-03    1.978094e-03   -1.310947e-03   -2.624231e-03   -1.373581e-03    3.085979e-03    4.622455e-03    1.824320e-03    2.117741e-03 
   8.925677e-04    2.950468e-03    4.709344e-03    4.337501e-03    5.009910e-03   -9.099076e-04    1.367027e-03    2.226379e-06   -2.248765e-03   -1.822230e-03 
  -2.157798e-03   -3.588043e-03   -4.335894e-03   -2.066731e-03    4.667040e-03    3.644337e-03    1.932304e-03    5.027111e-04   -3.569235e-05    3.601917e-03 
   2.606607e-03    2.486451e-03    5.010001e-03    4.689124e-03    2.121206e-06   -1.765272e-03   -6.728669e-04   -2.503261e-03    3.496368e-03    1.709778e-03 
   2.017202e-03    6.655262e-04    4.340235e-03    2.096141e-06    2.507543e-03 
   0.000000e+00    0.000000e+00    1.878263e-03    0.000000e+00    0.000000e+00    0.000000e+00    0.000000e+00    2.140948e-03    1.873564e-03    0.000000e+00 
   0.000000e+00    1.862433e-03    0.000000e+00    0.000000e+00    2.140777e-03    0.000000e+00    1.858184e-03    1.428514e-03    0.000000e+00    0.000000e+00 
   0.000000e+00    1.855929e-03    1.871559e-03    2.852196e-03    0.000000e+00    0.000000e+00    1.093709e-03    1.859902e-03    2.146811e-03    0.000000e+00 
   0.000000e+00    0.000000e+00    4.589687e-03    2.464211e-03    2.144369e-03    0.000000e+00    0.000000e+00    0.000000e+00    0.000000e+00    0.000000e+00 
   2.858002e-03    2.374555e-03    2.276527e-03    2.864199e-03    2.362211e-03    0.000000e+00    0.000000e+00    2.858786e-03    0.000000e+00    1.876522e-03 
   2.147171e-03    4.424027e-03    4.597375e-03    3.268775e-03    4.411448e-03    4.584876e-03    6.548266e-03    4.602611e-03    4.408005e-03    5.727652e-03 
   6.714984e-03    7.443224e-03    5.704314e-03    6.557265e-03    4.022533e-03    5.715678e-03    5.648022e-03    5.626731e-03    5.716407e-03    7.399215e-03 
   8.573504e-03    7.423551e-03    6.548803e-03    2.446837e-03    2.584045e-03    5.220831e-03    6.567637e-03    4.487152e-03    4.500576e-03    4.420345e-03 
   6.567957e-03    7.407465e-03    8.590850e-03    7.434388e-03    7.387388e-03    7.414776e-03    7.379381e-03    8.555874e-03    8.573078e-03    9.131953e-03 
   9.439840e-03    9.173819e-03    1.032559e-02    9.002244e-03    1.029874e-02    8.976187e-03    9.102988e-03    1.024655e-02    1.143046e-02    6.918757e-03 
   8.975387e-03    7.027718e-03    7.133512e-03    7.241035e-03    9.001425e-03    5.716955e-03    1.025765e-02    1.145319e-02    1.031380e-02    1.023045e-02 
   1.028702e-02    1.021929e-02    1.140776e-02    1.143050e-02    1.311447e-02    1.190119e-02    1.341993e-02    1.428784e-02    1.313589e-02    1.186790e-02 
   1.172155e-02    1.171498e-02    1.186766e-02    1.172984e-02    1.190091e-02    1.316928e-02    1.173640e-02    1.030633e-02    1.312810e-02    1.342697e-02 
   1.431508e-02    1.315426e-02    1.477803e-02    1.341014e-02    1.309477e-02    1.312087e-02    1.473742e-02    1.340307e-02    1.308111e-02    1.473847e-02 
   1.426007e-02    1.477903e-02    1.428732e-02    1.597330e-02    1.595794e-02    1.598604e-02    1.571613e-02    1.714477e-02    1.573093e-02    1.717629e-02 